16
Lattice="-7.537625 0.0 0.0 3.753749 -6.608461 0.0 3.699292 2.31091 6.268492" Properties=species:S:1:pos:R:3:forces:R:3 id=mp-149-SC222_1175 energy=-88.5995312 stress="-0.01307212309061301 0.0008685184778849073 -0.0014698753991455073 0.0008685184778849073 -0.03617010712031481 0.011823839989963735 -0.0014698753991455073 0.011823839989963735 -0.049560753146149016" pbc="T T T"
Si      -0.01797117       0.06788462       4.76723205      -0.34482800      -1.65214600      -2.08204100
Si      -1.84296589      -1.15206834       1.57553532       0.13057000      -0.24758300      -1.88898000
Si      -5.64211925      -1.06115114       1.57158617       0.93068000      -4.37408900       1.45875600
Si       3.62627942      -0.01616482       4.73307503       2.28532900       1.19998600       0.04192500
Si      -3.72279218      -4.46598389       1.55641642      -1.85398900       0.55834900       0.07103300
Si       5.46160036      -3.20814650       4.68617418       1.64921900      -1.76541700       0.57244400
Si       1.82304065      -3.28328852       4.79479460       0.16809500      -1.15263400      -1.07804200
Si       0.01965608      -4.59819543       1.68068927      -2.30436800       0.75478100      -4.91040600
Si      -3.73562776      -2.32583897       0.72408605       0.02073900       1.27081000       1.18402200
Si      -2.00823277      -1.22503265       3.76245546       0.32187400       2.64213900       2.14030300
Si       1.94540532      -1.16177360       3.93444408      -2.13565800       0.20054500      -0.21851400
Si       0.11414154      -2.33588367       0.85082242      -0.96510400      -0.17492900      -0.36829400
Si       3.77067074      -4.44818983       3.82688302      -1.13068700       0.46402600       1.28027700
Si       1.80764540      -5.49611267       0.84729953       1.90862600      -1.41658100      -1.35604300
Si      -2.08306254      -5.73351466       0.85728523       2.16238800       3.24038100      -1.81811800
Si      -0.00197761      -4.39870489       3.68717087      -0.84288700       0.45236200       6.97167800
16
Lattice="7.651675 0.0 0.0 3.793967 6.68899 0.0 3.688611 2.179209 6.386499" Properties=species:S:1:pos:R:3:forces:R:3 id=mp-149-SC222_1042 energy=-87.81276747 stress="-0.04470516488015901 0.023461202411773456 0.020476625094940346 0.023461202411773456 0.017053931286524986 -0.023236632913424177 0.020476625094940346 -0.023236632913424177 0.007367820655194522" pbc="T T T"
Si       3.84760875       2.29740654       1.60484417       0.28832000      -1.52102600      -0.52429000
Si       5.75765749       3.25375042       4.68693666      -0.42773600      -0.62772700       0.95108800
Si       7.53520336       2.40379404       1.49206499       3.17973000      -2.50303400       0.40335800
Si       9.60308503       3.45883154       4.72009536      -0.68951500      -1.18216200       1.46554600
Si       5.68905914       5.47562397       1.70142081       2.12462000       0.70425500      -1.57297500
Si       7.58077138       6.77544172       4.79835552       0.82162700      -1.52296800       0.12400000
Si       9.43478405       5.66621501       1.71250139       4.40758700      -3.59757600      -1.63275600
Si      11.34413949       6.80224896       4.79101743       4.32995600      -2.86392400      -1.75985700
Si       5.79031909       3.33109822       2.35392303      -1.86929600       0.05262300       1.07123600
Si       7.50840007       4.39949766       5.60458715       1.48951200       0.90129600      -0.33393400
Si       9.62724672       3.32511082       2.41300453      -1.47091000       0.49635800      -0.19294400
Si      11.53977029       4.39113374       5.63427799      -0.47225200       0.98090800      -1.41178500
Si       7.77665429       6.56547291       2.42526022      -5.61403200       3.53193100       1.79743400
Si       9.63186866       7.63585726       5.60417203      -3.75432000       2.29745100       1.81078200
Si      11.46798247       6.48785332       2.27998014      -0.95481600       3.07157200       1.62787500
Si      13.38928570       7.61399969       5.83590615      -1.38847400       1.78202200      -1.82277800
16
Lattice="7.602544 0.0 0.0 3.771374 6.638275 0.0 3.729269 2.105485 6.338609" Properties=species:S:1:pos:R:3:forces:R:3 id=mp-149-SC222_1066 energy=-89.63418197 stress="-0.01585647279468778 -0.01588088333687911 -0.01404668480854667 -0.01588088333687911 -0.015467002625232667 -0.003131159158654477 -0.01404668480854667 -0.003131159158654477 -0.005025993948144872" pbc="T T T"
Si       3.84566745       2.06193132       1.65520097      -1.12787400       1.51744800      -2.27174000
Si       5.70927948       5.52607184       1.60219118      -2.66893100      -0.69833200      -0.36010700
Si       9.55752576       5.47491709       1.64038130      -1.48201300       0.18289100      -1.34046100
Si       7.54872396       2.24763024       1.57022558      -0.08833300      -0.35912100       0.66028500
Si       7.54297070       6.66169599       4.73027571      -1.40038600      -0.64988600      -0.98419600
Si       5.56176300       3.37255357       4.63280058      -0.49918100      -0.40061500       1.95028500
Si       9.34186295       3.22397303       4.79534787       1.14860600       0.40566900      -1.42739700
Si      11.22008221       6.52674288       4.59568802       0.01794700       1.41277800       4.69160900
Si       7.52888539       6.56025959       2.20965811       1.72292900      -0.36766100       2.28720900
Si       5.60924313       3.27149446       2.38525026       0.71316300       0.69637900      -0.68849000
Si       9.49891835       3.30399044       2.24969911       0.33342400      -1.22916500       1.70875100
Si      11.21679045       6.65184974       2.50791502       2.26100700       0.79169000      -3.72076100
Si       7.52413473       4.39308802       5.38817895      -0.80300100       0.46332100       1.61133900
Si       9.28762333       7.74416987       5.58698942       1.68798800       0.75437100      -0.48476300
Si      13.16796122       7.72055235       5.59474788      -0.15274800      -1.20847200      -0.42803600
Si      11.19423824       4.47804900       5.61895503       0.33740300      -1.31129500      -1.20352800
16
Lattice="7.644663 0.0 0.0 3.682053 -6.724627 0.0 3.809022 -2.326153 -6.330427" Properties=species:S:1:pos:R:3:forces:R:3 id=mp-149-SC222_1002 energy=-87.44757213 stress="-0.03348615209052987 0.015106986137342591 0.0003572265333108024 0.015106986137342591 0.006815316025862209 -0.012538411645258731 0.0003572265333108024 -0.012538411645258731 -0.018959307984928998" pbc="T T T"
Si      11.09793814      -6.67602864      -4.86744000       4.69745500      -3.13890800      -0.65641800
Si       7.35661351      -6.69321424      -4.74364850       1.47350000      -1.74289600      -1.05304600
Si       9.39679677      -5.61267074      -1.56883174       1.28189100      -1.48356600      -2.71091000
Si       5.76711496      -5.60414697      -1.78154675      -2.58101500      -0.30442500       3.13201700
Si       9.50957603      -3.42896288      -4.95204616      -1.61665700       0.48525200      -0.35188200
Si       5.69941267      -3.34305720      -4.96070618      -2.65059000      -1.48030400       0.20678500
Si       7.41001706      -2.33711683      -1.64955102       1.42389100      -0.57458800      -0.96777300
Si       3.54518082      -2.30070532      -1.78640852       0.97049800      -0.35176500       4.21327400
Si       9.46878198      -5.62080256      -4.20818933      -4.36985900       1.84219500       2.57530600
Si       5.62002569      -5.60398746      -3.85842058      -1.81682600       0.91507600      -4.95796000
Si       7.55313514      -4.70811093      -0.90563089      -0.50167400       3.15472700       1.73726000
Si       3.62832789      -4.54881068      -0.97837382       1.47438000       0.66037900       1.64656300
Si       7.38968583      -2.32419898      -4.08569557       2.74290300       1.41036600       0.75708700
Si       3.60255503      -2.41951570      -3.83930269       1.51100200       1.09088800      -5.76858600
Si       5.56879528      -1.16408232      -1.09430293      -0.69699400       0.05808000       1.37698200
Si       1.80184687      -1.06137604      -1.03921556      -1.34190500      -0.54051100       0.82130100
16
Lattice="7.652318 0.0 0.0 -3.804215 6.674834 0.0 -3.812905 -2.245742 6.294399" Properties=species:S:1:pos:R:3:forces:R:3 id=mp-149-SC222_1195 energy=-87.31222175 stress="-0.011538035045580411 0.021276000134728718 -0.014327215677718622 0.021276000134728718 -0.025589145084097337 -0.009876245723832248 -0.014327215677718622 -0.009876245723832248 -0.027381438120158592" pbc="T T T"
Si       0.07597255       4.59230431       1.37147401      -0.49424900      -0.20899300       4.24585500
Si      -1.73538591       1.18546466       1.72969455      -1.47981500      -5.06613700      -2.84237100
Si      -1.89330418       3.35006895       4.73095212      -0.43134700       0.68070900      -0.18505000
Si      -3.70198369      -0.00760284       4.80199700      -5.63271400       2.41614900      -0.63068700
Si       3.86908773       4.44557130       1.51360154       1.19592500      -0.95756200       0.71779800
Si       1.94646039       0.96217372       1.66839969      -2.85288700       1.93459900      -1.84201400
Si       1.86778011       3.48098346       4.51584103       0.45165400      -1.46191800       0.85417100
Si      -0.15724858       0.19969537       4.66930477       0.20156300      -2.15024200       2.34370100
Si      -1.83290593       3.08875603       2.39828561       0.08280200       6.59005100       0.72009500
Si       3.70077398       0.21901828       2.59346863       3.77725200      -2.01378400      -1.38461300
Si      -3.73024017       2.18474791       5.54091538      -1.30745600       1.12178000      -2.82764600
Si       1.83119818      -1.05213102       5.47979047       0.18414900       0.28023900       0.78995400
Si       1.99917910       3.33231791       2.18769391      -1.34466200      -0.22064900       0.03006900
Si      -0.01055588      -0.13413149       2.53282839       0.61456300       0.35608400      -2.28993900
Si      -0.05272704       2.26139792       5.50502472       1.33337500       1.59656200      -0.27050300
Si      -2.13256868      -1.07010863       5.44412011       5.70184800      -2.89688700       2.57118100
16
Lattice="-7.606956 0.0 0.0 3.801624 -6.68292 0.0 3.795118 2.293437 6.341659" Properties=species:S:1:pos:R:3:forces:R:3 id=mp-149-SC222_1132 energy=-88.63091197 stress="-0.012982857027094626 0.0035464754173998745 0.006003589039513714 0.0035464754173998745 0.016936603397976632 -0.010474500615057284 0.006003589039513714 -0.010474500615057284 -0.03795331876059791" pbc="T T T"
Si      -0.03391880      -4.55739663       1.52403383      -0.20668100       1.03576500       2.58852400
Si      -3.85967123       0.16825206       4.71197313       1.29794400      -1.63406400       0.20910800
Si       1.78818926      -0.98120443       1.59157884      -1.06310900      -0.14162200       0.19425500
Si       1.86485348      -3.22310916       4.66453752      -0.46025300       0.64790700       2.21368000
Si      -1.94031921      -0.97367332       1.34160967      -0.57182600      -1.06134800       6.65447300
Si       5.60391444      -3.22385387       4.88518920       0.39345900      -1.28848100      -1.02376100
Si       3.65645385      -4.29207147       1.59294230       1.74107800      -1.88868600       0.12861900
Si      -0.00028580       0.09362360       4.76970125      -0.99232400       0.20459700       0.98019900
Si      -3.87690665      -0.14341997       2.38407694       0.63226400       1.63782000      -0.47655600
Si       3.78691195      -2.15867097       5.64127984      -1.29118500       1.07540300      -1.16006300
Si       2.06576009      -3.15838946       2.44964970      -3.74536100       0.45043000      -0.96097700
Si      -2.04896972       1.33954821       5.61488585       1.36587200      -0.85279400      -0.94087400
Si      -2.10120085      -3.29872927       2.46761562       2.27437800       0.55923400      -0.57659200
Si       1.99753750       1.13416588       5.68310308      -1.61421800       0.63675600      -5.73406100
Si      -0.19266724       0.14319531       2.42104881       0.84225700      -0.01479000      -0.14678400
Si      -0.15996447      -2.14655411       5.68901351       1.39770600       0.63387400      -1.94919000
16
Lattice="7.614282 0.0 0.0 3.71295 6.669035 0.0 3.72497 2.227328 6.285167" Properties=species:S:1:pos:R:3:forces:R:3 id=mp-149-SC222_1109 energy=-89.12571516 stress="-0.04610031069054032 -0.01946593752218607 -0.016202052671969686 -0.01946593752218607 -0.004154217402496253 -0.010682810982133636 -0.016202052671969686 -0.010682810982133636 -0.001995410467544878" pbc="T T T"
Si       3.81162642       2.26412788       1.61437657      -1.30023800      -0.49476000      -1.90158900
Si       7.56568542       6.69920707       4.73447803      -3.12383600      -1.13471600      -1.68397300
Si       5.58711796       5.78794526       1.60692236      -0.64097000      -2.29343500      -1.26595600
Si       5.52212399       3.27998294       4.54204507       1.03373700      -0.15149500       1.63896400
Si       9.38440788       5.56669792       1.56176972       0.86674700       0.71232000       0.71642600
Si       9.46961677       3.30034608       4.77563330      -0.34695800       0.42192900      -1.38506400
Si       7.56033379       2.42138737       1.67148360       0.39678700      -2.22903800      -2.14814300
Si      11.50326094       6.84333417       4.60228211      -3.37110800      -2.47636800       1.31674200
Si       7.51901272       6.66434068       2.26042260       0.32939600       1.28077600       1.55682100
Si       7.60186859       4.47159003       5.34406380      -1.75539100      -0.59790700       1.37290900
Si       5.65959595       3.31150660       2.27488477      -0.84187900       2.63861500       0.34351200
Si       9.29865984       7.65236789       5.45001915       3.48491600       2.62629400       1.18904300
Si       9.42080811       3.43078106       2.31517269       1.75064400      -0.69667100       1.42086800
Si      13.12318380       7.83071454       5.58755746       2.84172800       0.27139700      -0.15189600
Si      11.29678696       6.78793936       2.41144888      -0.50469900       0.54403500      -1.73647900
Si      11.29595110       4.42635702       5.44561953       1.18112400       1.57902500       0.71781400
16
Lattice="7.585357 0.0 0.0 -3.732141 6.645242 0.0 -3.774199 -2.241878 6.262899" Properties=species:S:1:pos:R:3:forces:R:3 id=mp-149-SC222_1047 energy=-88.16261259 stress="-0.06068655523849223 0.011781297863761715 -0.004695300070128199 0.011781297863761715 0.0014585969921550365 0.016471161579441267 -0.004695300070128199 0.016471161579441267 -0.025042363918633462" pbc="T T T"
Si       0.06390008       4.30034702       1.57160561      -3.87638500       3.01160100      -1.09936900
Si       3.52311001       4.26255281       1.47543254       3.93289500       2.00662300      -1.20465500
Si       5.75259463       1.14461215       1.47071657      -2.58097200       1.56714100      -0.40229300
Si       1.62056295       1.01435466       1.55864767       3.29244700       1.54217200       0.69753700
Si      -1.97496797       3.22769893       4.80246611      -0.86221100       2.40708700      -1.34383500
Si      -5.65952317       3.55004599       4.62549537      -0.05247800      -1.22151700       0.93935700
Si       3.86257412       0.03717809       4.58103505      -3.05225300       0.58344800       1.36251100
Si      -0.25580663      -0.04548148       4.57002487       1.51390100       1.65963400       0.41882900
Si      -1.90597674       3.30084276       2.43461431      -0.89942700       0.32728900      -0.54380100
Si       1.77019821       3.46356073       2.37913755       0.98693600      -4.01523600       0.99239700
Si       3.88422747       0.04205934       2.40586760      -1.20728000      -0.52076400      -2.99838800
Si      -0.18630334       0.00995133       2.20251127       0.30701200      -3.46037400       1.69703200
Si      -3.84928327       2.21884811       5.46384077      -0.85922600      -0.53769600       0.52276800
Si      -0.04162505       2.48229410       5.34896041       1.60335800      -3.04757900       1.10813500
Si       1.75632816      -1.06970986       5.43185614       0.25799000       0.07135700      -1.08141500
Si      -2.09146361      -1.02630422       5.52115256       1.49569400      -0.37318600       0.93519100
16
Lattice="-7.607091 0.0 0.0 3.745776 -6.686965 0.0 3.751723 2.313843 6.355567" Properties=species:S:1:pos:R:3:forces:R:3 id=mp-149-SC222_1177 energy=-88.1640031 stress="-0.02098820414893424 -0.01025435010516913 -0.011809871492540008 -0.01025435010516913 -0.02402020445210581 0.005295739489547293 -0.011809871492540008 0.005295739489547293 0.005677994474452888" pbc="T T T"
Si      -0.05887235      -4.59517144       1.59934030       0.28834300       1.55106400      -2.39952300
Si      -1.96944247      -1.13938384       1.56877002       1.82273400       0.09990500      -0.83031900
Si      -3.80474227       0.14879561       4.69409467       0.98993500      -1.33304600       0.68439700
Si      -1.92047420      -3.30073047       4.62985896       0.35476900      -1.11088300       0.70431200
Si      -5.61677803      -1.17069847       1.66279428      -0.31976000       3.83193100      -2.46678000
Si      -3.67469414      -4.35920794       1.43844277      -3.23439500      -0.43260500       2.80298600
Si       1.99489544      -3.30159702       4.59116627      -3.46762500       0.61277200      -1.49953800
Si       0.01154773      -0.03716793       4.68531764      -0.85103500       0.24626900      -0.75541800
Si      -3.73013574       0.05011378       2.34744138      -0.74349300      -1.80867500       1.40086200
Si      -1.89844825      -3.40380931       2.18292753       1.26347100       1.67495300       2.23887800
Si       3.68418154      -2.39645301       5.45336249       3.25181000       3.05136300       1.38114700
Si       1.84973732       0.95880756       5.54101847       0.22202600       2.26322900      -0.01183400
Si       1.68859222      -3.18687808       2.19289942       1.45136600      -3.56337100       1.22655400
Si       0.05893701       0.13534764       2.21301478      -0.30819700      -1.34879700       0.87340200
Si      -1.80428812       1.35697210       5.41399610      -0.43235000      -2.85243000       1.52957500
Si       0.03316942      -2.16949293       5.69894795      -0.28759900      -0.88167900      -4.87870100
16
Lattice="7.596551 0.0 0.0 -3.754097 6.652342 0.0 -3.760237 -2.260417 6.270145" Properties=species:S:1:pos:R:3:forces:R:3 id=mp-149-SC222_1151 energy=-88.26513644 stress="-0.017338356857391487 0.01429013487200175 -0.006190859279326716 0.01429013487200175 -0.0315476517031948 -0.007501538746707444 -0.006190859279326716 -0.007501538746707444 -0.017544208069872246" pbc="T T T"
Si       0.01933950       4.41828795       1.61594804      -2.32638100       0.85898400      -0.21192700
Si      -3.88408815      -0.05810245       4.89381055       2.44380000      -0.45033300      -2.47395900
Si      -1.80492018       1.21553871       1.62650069      -0.42648700      -1.65620100       0.15158900
Si      -1.78227276       3.45051787       4.92067185      -1.59815000      -2.47176900      -1.96752900
Si       1.92416510       1.11508121       1.73982102      -0.62968900       1.01802300      -1.25210100
Si      -5.59587391       3.31922098       4.95329542      -1.17666900       0.25165000      -2.21556100
Si      -3.67932096       4.58624360       1.45196494      -2.05465500      -1.06984000       0.75773400
Si       0.05220161       0.01537012       4.59552721       0.50376300      -0.81125300       5.16318000
Si       3.82911926       0.05305255       2.29344975       0.56746600      -0.69845200       1.57719300
Si      -3.86761898       2.06099969       5.57027769       2.14024600       1.47479700       0.42160900
Si      -2.05286182       3.29463491       2.32252441       1.63564800       1.68337600       2.09859000
Si       1.89719320      -1.08726635       5.57169474      -0.86599500       0.31240100       0.73043100
Si       1.77262785       3.40792402       2.38663037       3.15170800      -0.95341100       1.36684400
Si      -1.73288564      -1.08665747       5.45825527      -1.96712000      -0.13287800       1.86759100
Si       0.00639218      -0.03441646       2.58363206       0.22870600       0.57869400      -6.54712600
Si       0.02926107       2.09522705       5.41966253       0.37380900       2.06621000       0.53344400
16
Lattice="-7.586007 0.0 0.0 3.750056 -6.615384 0.0 3.790026 2.27336 6.360572" Properties=species:S:1:pos:R:3:forces:R:3 id=mp-149-SC222_1134 energy=-88.90854441 stress="-0.04700631567223528 0.01571479053753023 0.006406784287536647 0.01571479053753023 -0.02061280858255799 -0.007256846622936316 0.006406784287536647 -0.007256846622936316 0.022864445482738627" pbc="T T T"
Si       0.10379188       0.08912810       4.70850247      -1.36585600      -0.08773100       1.14943900
Si       3.71564589      -4.42387390       1.84171634       0.08557400       0.69547400      -1.92651400
Si       1.84773798      -3.29537134       4.63423643      -2.02033900       1.93101800       2.05988000
Si      -5.78292231      -0.94240445       1.54900918       2.33371200       0.02136100       0.71015400
Si      -1.92541385      -3.19213541       4.70624447      -1.31724400       1.50034100       1.69815100
Si      -1.81763255      -1.03326554       1.54542182      -1.23336200       0.27960200      -0.25453000
Si      -3.66145469       0.13383670       4.52839651      -3.55914900       1.08639600       2.96479200
Si      -0.08471392      -4.32251206       1.57909469       0.81729800       1.33223800       1.09147000
Si       3.72864114      -4.18250270       4.14463140       1.32349200      -2.86408600      -1.02179400
Si      -3.86214579      -2.16208161       0.87097221       0.78766300      -0.45827700      -0.66536900
Si       1.97194709      -1.04559874       3.87629159      -0.26592900       0.11470400       0.26269400
Si      -1.84595787      -5.40731655       0.83429079      -2.42944400       0.12495300      -1.41596500
Si      -2.06999721      -1.03891513       3.92664188       4.94290800      -0.81886300      -1.73659700
Si       1.74068307      -5.35693562       0.71777147       1.65971800      -1.08024000       0.81373800
Si      -0.18650019      -4.28705183       4.03428184       2.28365900      -0.65972500      -1.97486100
Si       0.12880697      -2.09634052       0.78871093      -2.04270200      -1.11716500      -1.75468800
16
Lattice="-7.593801 0.0 0.0 -3.763251 -6.658053 0.0 -3.707181 -2.304788 6.369184" Properties=species:S:1:pos:R:3:forces:R:3 id=mp-149-SC222_1128 energy=-88.92882822 stress="-0.020088727785784955 0.00011923779034087376 -0.0009733196576176131 0.00011923779034087376 0.0005507757313044422 0.002490643009138085 -0.0009733196576176131 0.002490643009138085 -0.010259024995504415" pbc="T T T"
Si      -3.76594245      -2.24858522       1.61584287       0.72450700      -0.89570500       0.92565900
Si      -9.47846644      -5.55211581       1.55909344      -0.23646600      -1.02226200       1.51858200
Si      -7.53481251      -6.83673828       4.70576332       1.02492300       2.37521000       1.71761200
Si      -9.39448869      -3.41816093       4.76598396       1.46436200       0.17322600       2.36844400
Si      -5.63385301      -5.62995970       1.57912453      -2.60557400       0.68199700      -1.75976800
Si      -7.38805294      -2.22065532       1.56228440      -2.13461600       0.76772800       0.91540700
Si      -5.57563700      -3.39134789       4.78426988       1.37778600       0.18138400      -1.16577400
Si     -11.24747165      -6.77738829       4.95012344      -1.86440000       0.69105000      -1.01527100
Si      -7.47648219      -6.78877857       2.51591685      -0.99980800       0.97357900      -2.45854000
Si      -9.52008696      -3.49967460       2.60614908       1.01268600       1.43822500      -3.43543300
Si      -7.29407434      -4.42690203       5.71264214      -2.31288400      -1.47849700      -1.09803900
Si     -13.31204044      -7.86097461       5.62278570       1.24994300      -0.38619400      -0.33834100
Si      -5.62535766      -3.47890136       2.32305796      -0.01823800       0.92673900       0.95126300
Si     -11.56490035      -6.45234080       2.56176860       4.40260600      -2.88753400       0.72500500
Si      -9.34451420      -7.82369294       5.50408321      -0.33758100      -1.31962500       1.30031000
Si     -11.20819459      -4.51834062       5.56234851      -0.74724600      -0.21932300       0.84888300
16
Lattice="7.673865 0.0 0.0 3.815947 6.687644 0.0 3.714303 2.232466 6.409302" Properties=species:S:1:pos:R:3:forces:R:3 id=mp-149-SC222_1144 energy=-88.80997857 stress="-0.0024978769182149832 -0.006815472063590356 -0.007796999305708506 -0.006815472063590356 0.019654150229877078 -0.012947286666586216 -0.007796999305708506 -0.012947286666586216 -0.012738789054236086" pbc="T T T"
Si       3.92105291       2.32641542       1.61336232      -1.74149600      -0.48550200       1.86860400
Si       5.76236784       5.58745962       1.59944772      -0.00610700       0.59180100       0.20576200
Si       5.52879279       3.25862808       4.78108292       1.73952700       0.50442600       0.71601400
Si       7.62590587       6.75330252       4.72687945       0.05827200      -0.71843900       3.95232600
Si       7.83161698       2.28944894       1.67164210      -2.78668400      -1.91819200      -0.49590900
Si       9.34968517       5.71729899       1.64533192       3.21498500      -1.71051900       0.34342300
Si       9.43428203       3.31374022       4.89388023      -0.90643500      -0.36193100       0.24394100
Si      11.63818666       6.66676186       4.79656779      -2.35634900      -1.58074900       1.75499200
Si       5.66023931       3.46432056       2.48840509       1.98244100      -0.80729200      -0.65724900
Si       7.68638206       6.69378246       2.58234623      -2.53703100       1.83477600      -2.41398000
Si       7.50430099       4.47915309       5.80694298      -0.20089700      -0.03533500      -2.72909200
Si       9.61556489       7.78944040       5.60358865      -0.16152100      -0.61468200      -0.11847700
Si       9.45442370       3.46537373       2.52548931       2.22327600       0.51438100       0.05167100
Si      11.49941091       6.51740126       2.63256952      -0.37971600       1.40902000      -3.37953800
Si      11.37808908       4.29311316       5.60758164      -0.04577000       1.69464300       1.26079100
Si      13.30041340       7.69496146       5.76547480       1.90350400       1.68359400      -0.60328000
16
Lattice="7.606903 0.0 0.0 -3.744633 6.640299 0.0 -3.738718 -2.266438 6.306385" Properties=species:S:1:pos:R:3:forces:R:3 id=mp-149-SC222_1062 energy=-88.82678085 stress="-0.006929030080626677 -0.011371236955700309 0.006568813864444576 -0.011371236955700309 -0.0209358191628407 -0.00572132303080477 0.006568813864444576 -0.00572132303080477 -0.02262506488323363" pbc="T T T"
Si      -0.09522072      -0.10891388       4.91640729       0.63755000       0.69951200      -4.84219800
Si      -3.72860758       4.43846025       1.64694397       0.03576800      -0.20594300      -2.12206300
Si       2.01084847       1.02867554       1.53397139      -0.63399600       0.01680000       0.06663300
Si       1.78375869       3.39685363       4.70683981       0.62395100      -0.26192900      -0.86958200
Si       5.90783471       0.98280310       1.43325843      -1.54494500       4.05458400       2.46460100
Si      -1.81136723       3.33762041       4.66122573      -3.35732600      -2.33291100       1.65764300
Si       3.82148623      -0.04452363       4.64208585      -0.45592300       0.37813000       0.12499400
Si       0.05732964       4.29337338       1.58304138       0.68608100       1.79973500      -0.96788800
Si       3.91688406       2.13644888       0.68218058       0.12911300       0.57568500       4.12863300
Si      -3.79357374       4.33717501       3.89681619      -0.25647000       0.75560200       1.23902800
Si       1.94827866       1.22340323       3.94665555      -0.91070700      -1.53625800      -0.24737600
Si      -1.74656692       5.39769286       0.62549249      -0.99113700       0.82934500       1.76740900
Si      -1.88295967       1.09006062       3.83800915       0.43055100      -0.39348400       0.37006200
Si       1.97077851       5.70752888       0.75035891      -0.17408200      -5.77092500      -1.17015800
Si      -0.02654044       2.23824115       0.73658577       2.47058100      -1.14494500      -1.21198300
Si      -0.18801083       4.34073534       3.83742897       3.31099000       2.53700300      -0.38775700
16
Lattice="-7.674295 0.0 0.0 -0.032947 7.687683 0.0 3.803835 -3.842385 -5.486765" Properties=species:S:1:pos:R:3:forces:R:3 id=mp-149-SC222_1001 energy=-89.00202076 stress="0.005846452805760478 0.0017645432864875816 0.020034632626190926 0.0017645432864875816 -0.01664666657455198 -0.002461819719994756 0.020034632626190926 -0.002461819719994756 -0.0062483186123395975" pbc="T T T"
Si      -3.72933043       0.04699237      -2.85788031      -1.56974300      -0.98342100       1.42630600
Si      -3.79090392       3.89193219      -2.75269354      -2.88859800      -0.12185800       0.40499800
Si      -5.84051292       1.87193031      -0.00965671      -0.73578800      -2.38641400      -2.28270700
Si      -1.95243552       1.89327021      -5.44998173      -2.09670200       0.27747800      -0.23007400
Si      -2.07181313       1.94506644      -0.02170564       0.26170300      -2.20141000       0.02701600
Si       2.01793914       1.78071168      -5.40910533      -2.45045900      -0.99997700       0.06958000
Si      -0.28696910      -0.25982284      -2.74284480       0.95927700       2.99764300      -2.85398500