2
Lattice="3.665836 0.0 0.0 -1.793937 3.285284 0.0 -1.813346 -1.114694 3.150703" Properties=species:S:1:pos:R:3:forces:R:3 id=mp-149-SC111_1189 energy=-10.68000628 stress="-0.08780829040543195 0.06565720572521788 -0.08247301719708129 0.06565720572521788 0.008169099355266288 0.05087497154920412 -0.08247301719708129 0.05087497154920412 -0.09969812187138365" pbc="T T T"
Si       1.73412737       1.16752137       0.49373091       3.38310300      -2.06766600      -1.50989900
Si      -1.67557437       1.00306863       2.65697209      -3.38310300       2.06766600       1.50989900
2
Lattice="3.807039 0.0 0.0 1.823811 3.361836 0.0 1.901557 1.028516 3.182228" Properties=species:S:1:pos:R:3:forces:R:3 id=mp-149-SC111_1088 energy=-10.95396001 stress="0.04343093582607344 -0.002937335334259298 0.008769869574669055 -0.002937335334259298 0.027180655013088056 0.02393432752804278 0.008769869574669055 0.02393432752804278 -0.07764449211466112" pbc="T T T"
Si       2.79104911       1.56737972       1.06653326       0.22228300       0.93886400       3.75586800
Si       4.74135789       2.82297228       2.11569474      -0.22228300      -0.93886400      -3.75586800
2
Lattice="3.74615 0.0 0.0 1.824461 3.32278 0.0 1.849532 1.086181 3.143895" Properties=species:S:1:pos:R:3:forces:R:3 id=mp-149-SC111_1055 energy=-10.51794408 stress="-0.10705028258018132 -0.11062370259247761 -0.0784523056747877 -0.11062370259247761 -0.0424660734133214 -0.047725942949922245 -0.0784523056747877 -0.047725942949922245 -0.01116376919235595" pbc="T T T"
Si       2.94265283       1.67141077       1.19051444      -5.51669600      -2.76263300      -1.96957600
Si       4.47749017       2.73755023       1.95338056       5.51669600       2.76263300       1.96957600
2
Lattice="3.760041 0.0 0.0 1.841088 3.341083 0.0 1.80909 1.11427 3.177159" Properties=species:S:1:pos:R:3:forces:R:3 id=mp-149-SC111_1197 energy=-10.08355293 stress="0.034127847885271054 -0.036680475321538286 0.0023577550383389045 -0.036680475321538286 -0.11217250187451992 0.10408736954152416 0.0023577550383389045 0.10408736954152416 -0.054597001893787724" pbc="T T T"
Si       2.94329900       1.43707917       1.09577037       0.31589000       4.93910500      -0.60703900
Si       4.46692000       3.01827383       2.08138863      -0.31589000      -4.93910500       0.60703900
2
Lattice="3.734402 0.0 0.0 1.755435 3.351538 0.0 1.781826 1.18238 3.145272" Properties=species:S:1:pos:R:3:forces:R:3 id=mp-149-SC111_1180 energy=-11.23991644 stress="-0.07204155178744698 0.0008350515059519212 0.008684685458119002 0.0008350515059519212 0.022171438241473558 -0.019838930107548853 0.008684685458119002 -0.019838930107548853 -0.005334736438565813" pbc="T T T"
Si       0.95432531       0.48426780       0.40196576      -1.08286500       1.93109000       0.34516200
Si       6.31733769       4.04965020       2.74330624       1.08286500      -1.93109000      -0.34516200
2
Lattice="3.719967 0.0 0.0 1.791775 3.274474 0.0 1.726675 1.026018 3.252432" Properties=species:S:1:pos:R:3:forces:R:3 id=mp-149-SC111_1040 energy=-10.72282075 stress="-0.0225718872254811 -0.05808668581965118 -0.030039946517237313 -0.05808668581965118 -0.13560382618210778 0.032547610121761675 -0.030039946517237313 0.032547610121761675 0.04022005387135406" pbc="T T T"
Si       2.79371855       1.50115101       1.27374669      -1.80055100       3.37947700      -2.34249900
Si       4.44469845       2.79934099       1.97868531       1.80055100      -3.37947700       2.34249900
2
Lattice="3.868019 0.0 0.0 1.850848 -3.408927 0.0 1.92223 -1.185384 -3.182379" Properties=species:S:1:pos:R:3:forces:R:3 id=mp-149-SC111_1072 energy=-11.30344844 stress="0.027104283907423747 0.013446182974036318 0.0042791848982146885 0.013446182974036318 0.048299369117844514 -0.00234984704627641 0.0042791848982146885 -0.00234984704627641 -0.019786838472384233" pbc="T T T"
Si       3.83903310      -2.33630641      -2.71435289      -0.37223300       0.40396000      -2.04591600
Si       3.80206390      -2.25800459      -0.46802611       0.37223300      -0.40396000       2.04591600
2
Lattice="3.813369 0.0 0.0 -1.902864 -3.313066 0.0 -1.866717 1.030821 -3.211826" Properties=species:S:1:pos:R:3:forces:R:3 id=mp-149-SC111_1006 energy=-10.66462742 stress="0.04206986865551946 0.006878118090686847 -0.013187547318877965 0.006878118090686847 0.030837717489180336 -0.016485429669303036 -0.013187547318877965 -0.016485429669303036 -0.1179254631150838" pbc="T T T"
Si      -0.01077947      -1.20897969      -2.64313366       0.41816600       0.16556900      -5.37072400
Si       0.05456747      -1.07326531      -0.56869234      -0.41816600      -0.16556900       5.37072400
2
Lattice="3.705767 0.0 0.0 1.815822 -3.279951 0.0 1.849812 -1.120045 -3.143306" Properties=species:S:1:pos:R:3:forces:R:3 id=mp-149-SC111_1200 energy=-10.45133792 stress="-0.19945872124911737 0.0768382576563434 0.03305247331193613 0.0768382576563434 -0.06463374178328293 -0.02415590734352076 0.03305247331193613 -0.02415590734352076 0.038053638536778234" pbc="T T T"
Si       2.69386095      -2.68883769      -1.80131237       3.65244500      -2.96022100      -2.70173500
Si       4.67754005      -1.71115831      -1.34199363      -3.65244500       2.96022100       2.70173500
2
Lattice="3.849691 0.0 0.0 1.863818 -3.376982 0.0 1.91845 -1.223918 -3.26979" Properties=species:S:1:pos:R:3:forces:R:3 id=mp-149-SC111_1111 energy=-10.51380552 stress="-0.06354619626715252 0.07113498506993068 0.06800840093746549 0.07113498506993068 0.02602256796081692 -0.03193053083901298 0.06800840093746549 -0.03193053083901298 0.0275573987454355" pbc="T T T"
Si       2.70910641      -2.76741120      -2.05279378       4.84124100      -3.01457900      -1.52171500
Si       4.92285259      -1.83348880      -1.21699622      -4.84124100       3.01457900       1.52171500
2
Lattice="3.66209 0.0 0.0 1.619743 3.305302 0.0 1.698861 1.139042 3.158127" Properties=species:S:1:pos:R:3:forces:R:3 id=mp-149-SC111_1168 energy=-11.29634829 stress="-0.03213680023260517 -0.021726056633268778 -0.014920446154097322 -0.021726056633268778 -0.06433994146570936 0.02377651096979482 -0.014920446154097322 0.02377651096979482 0.00173661877465838" pbc="T T T"
Si       0.89325121       0.62207829       0.39519538       0.21918200      -1.71729800       0.57899800
Si       6.08744279       3.82226571       2.76293162      -0.21918200       1.71729800      -0.57899800
2
Lattice="3.770048 0.0 0.0 -1.815292 3.335649 0.0 -1.86753 -1.104115 3.128217" Properties=species:S:1:pos:R:3:forces:R:3 id=mp-149-SC111_1163 energy=-11.13454859 stress="-0.08538859463052778 0.050439919638602684 -0.023745590533585197 0.050439919638602684 -0.015061822577307702 0.01991541980188655 -0.023745590533585197 0.01991541980188655 0.02241923863678938" pbc="T T T"
Si       1.85601193       1.14860376       0.31958491       2.49380100      -1.64220400       1.79125900
Si      -1.76878593       1.08293024       2.80863209      -2.49380100       1.64220400      -1.79125900
2
Lattice="3.792627 0.0 0.0 -1.757926 3.389483 0.0 -1.83047 -1.13114 3.206706" Properties=species:S:1:pos:R:3:forces:R:3 id=mp-149-SC111_1154 energy=-11.15472344 stress="0.022733854387297775 -0.005292306659528058 0.010853116800142488 -0.005292306659528058 -0.03539501779253525 -0.025791906749560778 0.010853116800142488 -0.025791906749560778 0.038716880021021964" pbc="T T T"
Si       1.90719015       0.10377659       1.22660994       0.30768000      -2.89591600      -1.02051400
Si      -1.70295915       2.15456641       1.98009606      -0.30768000       2.89591600       1.02051400
2
Lattice="3.830558 0.0 0.0 1.885632 3.34709 0.0 1.899853 1.094499 3.183623" Properties=species:S:1:pos:R:3:forces:R:3 id=mp-149-SC111_1023 energy=-11.02078335 stress="0.030716619729119946 0.021025185090505095 0.028046202532629044 0.021025185090505095 0.017910029161249386 0.009199372783657586 0.028046202532629044 0.009199372783657586 -0.04603357023345725" pbc="T T T"
Si       2.74031769       1.60792488       1.09475562       1.30920600       0.42217000       2.22479100
Si       4.87572531       2.83366412       2.08886738      -1.30920600      -0.42217000      -2.22479100
2
Lattice="3.797873 0.0 0.0 -0.062703 3.827961 0.0 -1.847394 -1.904428 2.779177" Properties=species:S:1:pos:R:3:forces:R:3 id=mp-149-SC111_1070 energy=-11.1562885 stress="-0.056263659592654065 -0.0042297958365015735 -0.005953694415561403 -0.0042297958365015735 0.03130522524723637 -0.023679449261378212 -0.005953694415561403 -0.023679449261378212 0.009021745675444073" pbc="T T T"
Si      -0.91601748      -0.07397327       2.17620954      -0.59781700       0.99886100      -1.99554700
Si       2.80379348       1.99750627       0.60296746       0.59781700      -0.99886100       1.99554700
2
Lattice="3.899405 0.0 0.0 -1.911964 3.410795 0.0 -1.887491 -1.133069 3.247287" Properties=species:S:1:pos:R:3:forces:R:3 id=mp-149-SC111_1089 energy=-11.10118356 stress="0.005390797673534496 0.01656298666170126 -0.0004946895302992552 0.01656298666170126 0.0072631006150804525 0.002036779190031232 -0.0004946895302992552 0.002036779190031232 0.06561922614218689" pbc="T T T"
Si       1.93351648       1.12921398       0.28179957       1.09152800       0.05374500       1.82646400
Si      -1.83356648       1.14851202       2.96548743      -1.09152800      -0.05374500      -1.82646400
2
Lattice="3.842207 0.0 0.0 -1.841371 3.402686 0.0 -1.920358 -1.096079 3.21899" Properties=species:S:1:pos:R:3:forces:R:3 id=mp-149-SC111_1047 energy=-11.01247574 stress="-0.06659513602609174 0.02367393800882006 -0.011385817121018374 0.02367393800882006 0.0370915036635142 0.023818872092232192 -0.011385817121018374 0.023818872092232192 0.04847047384902148" pbc="T T T"
Si       1.93351283       1.24388601       0.33985453       1.05780500      -2.54547200       1.73645600
Si      -1.85303483       1.06272099       2.87913547      -1.05780500       2.54547200      -1.73645600
2
Lattice="3.806503 0.0 0.0 1.837743 3.356504 0.0 1.873957 1.114552 3.158352" Properties=species:S:1:pos:R:3:forces:R:3 id=mp-149-SC111_1124 energy=-11.31119361 stress="0.02295618942537999 -0.009842410502860836 -0.0038546624135086124 -0.009842410502860836 0.01600288611576275 0.012085658814776284 -0.0038546624135086124 0.012085658814776284 -0.04114668079920094" pbc="T T T"
Si       2.82511800       1.63539125       1.11257055      -0.18072900       0.73489800       2.09609000
Si       4.69308500       2.83566475       2.04578145       0.18072900      -0.73489800      -2.09609000
2
Lattice="3.741729 0.0 0.0 1.783736 3.357513 0.0 1.817464 1.120405 3.176218" Properties=species:S:1:pos:R:3:forces:R:3 id=mp-149-SC111_1149 energy=-11.09982563 stress="-0.017262890770550432 0.03227669117664359 0.007510201961374171 0.03227669117664359 -0.06076223353664356 0.015206263581498892 0.007510201961374171 0.015206263581498892 0.04301254874483811" pbc="T T T"
Si       2.67543839       1.60464495       1.25871614       1.47163400       1.85658500      -1.70654800
Si       4.66749061       2.87327305       1.91750186      -1.47163400      -1.85658500       1.70654800
2
Lattice="3.783242 0.0 0.0 1.842728 -3.326118 0.0 1.847167 -1.172189 -3.137743" Properties=species:S:1:pos:R:3:forces:R:3 id=mp-149-SC111_1172 energy=-11.1417965 stress="0.020718171498112028 0.018393371627957785 0.014303866192078692 0.018393371627957785 -0.0017999014356857106 0.024156999607617795 0.014303866192078692 0.024156999607617795 -0.07965048194017438" pbc="T T T"
Si       3.77463059      -2.21951359      -2.65637871      -0.72395100      -0.98502700      -2.64770300
Si       3.69850641      -2.27879341      -0.48136429       0.72395100       0.98502700       2.64770300
2
Lattice="3.794208 0.0 0.0 1.831435 -3.335108 0.0 1.838376 -1.219519 -3.220816" Properties=species:S:1:pos:R:3:forces:R:3 id=mp-149-SC111_1117 energy=-10.89431723 stress="-0.09746219484967283 -0.021587445198601167 -0.016835384844482187 -0.021587445198601167 0.009881039202840926 -0.013963772601318439 -0.016835384844482187 -0.013963772601318439 0.04876393088359313" pbc="T T T"
Si       2.82332387      -2.74406821      -1.92725577      -2.04240800      -2.70950300      -2.03471400
Si       4.64069513      -1.81055879      -1.29356023       2.04240800       2.70950300       2.03471400
2
Lattice="3.784108 0.0 0.0 -1.823927 3.342806 0.0 -1.856642 -1.109111 3.16112" Properties=species:S:1:pos:R:3:forces:R:3 id=mp-149-SC111_1193 energy=-11.3948236 stress="-0.011990213657223277 0.027850106798912044 -0.013671526419517206 0.027850106798912044 0.008647592169383876 0.006512864976640159 -0.013671526419517206 0.006512864976640159 -0.008597566473739923" pbc="T T T"
Si       1.96386451       0.00434443       1.15545574      -1.28663300       0.24860000       0.53031500
Si      -1.86032551       2.22935057       2.00566426       1.28663300      -0.24860000      -0.53031500
2
Lattice="-3.774563 0.0 0.0 1.828084 -3.351579 0.0 1.871729 1.229436 3.177519" Properties=species:S:1:pos:R:3:forces:R:3 id=mp-149-SC111_1102 energy=-11.23750239 stress="-0.018199922294110164 0.043073534530507114 0.019492251724660792 0.043073534530507114 -0.02910161051827027 0.013665703091502758 0.019492251724660792 0.013665703091502758 0.025407847968517805" pbc="T T T"
Si       0.82022191      -1.66362099       1.21902974       2.06426600       0.49380600      -1.13028200
Si      -0.89497191      -0.45852201       1.95848926      -2.06426600      -0.49380600       1.13028200
2
Lattice="3.710129 0.0 0.0 -1.826467 3.339094 0.0 -1.744606 -1.138181 3.231024" Properties=species:S:1:pos:R:3:forces:R:3 id=mp-149-SC111_1123 energy=-10.64009561 stress="0.03607408774392223 -0.011224804910097962 0.008007725136816577 -0.011224804910097962 -0.0950311208036322 -0.08809201068576722 0.008007725136816577 -0.08809201068576722 -0.0074941363168841485" pbc="T T T"
Si       1.88037331       0.16683053       1.16118479       0.02820500      -5.05591500      -0.70683600
Si      -1.74131731       2.03408247       2.06983921      -0.02820500       5.05591500       0.70683600
2
Lattice="-3.816413 0.0 0.0 -0.020985 -3.820702 0.0 1.895363 1.883522 2.810579" Properties=species:S:1:pos:R:3:forces:R:3 id=mp-149-SC111_1063 energy=-11.21774124 stress="0.019497581973454296 0.0026800291205447604 -0.007884118290087585 0.0026800291205447604 -0.022054079145379577 0.041846622357104866 -0.007884118290087585 0.041846622357104866 0.017353810833987175" pbc="T T T"
Si      -0.97374981      -1.84166132       2.07159346      -0.18742500      -2.52059700       1.41140600
Si      -0.96828519      -0.09551868       0.73898554       0.18742500       2.52059700      -1.41140600
2
Lattice="3.713175 0.0 0.0 -1.827655 3.255489 0.0 -1.781662 -1.040404 3.156341" Properties=species:S:1:pos:R:3:forces:R:3 id=mp-149-SC111_1147 energy=-10.84499396 stress="-0.02284343032151178 0.027748445098269653 -0.001230526007186136 0.027748445098269653 -0.1628090352920971 -0.0440416862185685 -0.001230526007186136 -0.0440416862185685 0.021111080739095508" pbc="T T T"
Si       1.94019674       0.12134395       1.24695670      -1.00442200      -4.03244000      -2.18248400
Si      -1.83633874       2.09374105       1.90938430       1.00442200       4.03244000       2.18248400
2
Lattice="3.69402 0.0 0.0 1.797195 3.37189 0.0 1.818053 1.128354 3.241059" Properties=species:S:1:pos:R:3:forces:R:3 id=mp-149-SC111_1001 energy=-10.57017143 stress="-0.08284551670322314 -0.06894336652150455 -0.0814922951096404 -0.06894336652150455 0.027275295015963825 -0.04939260689029772 -0.0814922951096404 -0.04939260689029772 -0.02811995220446048" pbc="T T T"
Si       2.86454958       1.78657205       1.12982344      -4.09476100      -2.55583900       0.16400900
Si       4.44471842       2.71367195       2.11123556       4.09476100       2.55583900      -0.16400900
2
Lattice="-3.778446 0.0 0.0 -1.798957 -3.356942 0.0 -1.792855 -1.228575 3.197843" Properties=species:S:1:pos:R:3:forces:R:3 id=mp-149-SC111_1161 energy=-11.44884384 stress="-0.013087895384174115 -0.0170100222698244 0.012206450740889503 -0.0170100222698244 0.0018945289555432265 -0.010811748077656134 0.012206450740889503 -0.010811748077656134 0.027241990323268107" pbc="T T T"
Si      -5.55056658      -3.39638155       1.20601532       0.29639500      -0.00915900      -0.41694500
Si      -1.81969142      -1.18913545       1.99182768      -0.29639500       0.00915900       0.41694500
2
Lattice="3.831237 0.0 0.0 1.829439 3.40174 0.0 1.83644 1.144893 3.256308" Properties=species:S:1:pos:R:3:forces:R:3 id=mp-149-SC111_1084 energy=-11.24971493 stress="-0.016255817031580043 -0.031082347197860197 -0.02432163813534034 -0.031082347197860197 0.041760608119841065 -0.016251042277098744 -0.02432163813534034 -0.016251042277098744 0.037577124281053545" pbc="T T T"
Si       0.89874497       0.50465588       0.42804494       1.54539200       1.52912700       0.08576600
Si       6.59837103       4.04197712       2.82826306      -1.54539200      -1.52912700      -0.08576600
2
Lattice="3.779272 0.0 0.0 -1.875299 3.323962 0.0 -1.867695 -1.123955 3.158288" Properties=species:S:1:pos:R:3:forces:R:3 id=mp-149-SC111_1134 energy=-11.41457098 stress="-0.017916576504322438 -0.015500263627364497 0.011059979137101637 -0.015500263627364497 -0.027897873068252425 -0.006549739812555877 0.011059979137101637 -0.006549739812555877 0.018844489183049252" pbc="T T T"
Si       1.92924415       1.07995842       0.36995870      -0.84850200       0.61557400       0.81247900
Si      -1.89296615       1.12004858       2.78832930       0.84850200      -0.61557400      -0.81247900
2
Lattice="-3.772297 0.0 0.0 -1.878084 -3.278547 0.0 -1.792928 -1.167201 3.226019" Properties=species:S:1:pos:R:3:forces:R:3 id=mp-149-SC111_1027 energy=-10.87514354 stress="0.03646367650205073 -0.01749299648749437 0.010341525263130343 -0.01749299648749437 -0.06043561536408609 -0.06680258506490871 0.010341525263130343 -0.06680258506490871 -0.033757071035647956" pbc="T T T"
Si      -2.75212570      -0.68136764       0.49471647      -0.46416000       3.08703700      -1.05493100
Si      -4.69118330      -3.76438036       2.73130253       0.46416000      -3.08703700       1.05493100
2
Lattice="3.747896 0.0 0.0 1.789768 3.380924 0.0 1.868233 1.066694 3.168022" Properties=species:S:1:pos:R:3:forces:R:3 id=mp-149-SC111_1115 energy=-11.01441089 stress="0.0059243468396515 -0.02141496109390738 -0.015507353981731501 -0.02141496109390738 0.042096220307048945 -0.005235121952916716 -0.015507353981731501 -0.005235121952916716 -0.08907492978442044" pbc="T T T"
Si       0.88566805       0.55890619       0.51593139       0.71881000       0.37166800      -3.83503200
Si       6.52022895       3.88871181       2.65209061      -0.71881000      -0.37166800       3.83503200
2
Lattice="-3.629519 0.0 0.0 1.796129 -3.163068 0.0 1.810595 1.132971 3.132347" Properties=species:S:1:pos:R:3:forces:R:3 id=mp-149-SC111_1020 energy=-11.26255261 stress="-0.0974078063391499 0.010741549824517324 0.005901509157759894 0.010741549824517324 -0.1229330883018712 0.01840064298608944 0.005901509157759894 0.01840064298608944 -0.02831823870788067" pbc="T T T"
Si      -1.81151028      -1.03220422       0.39412756      -0.37829700      -0.62026200       0.79067700
Si       1.78871528      -0.99789278       2.73821944       0.37829700       0.62026200      -0.79067700
2
Lattice="3.776487 0.0 0.0 -0.053296 3.811696 0.0 -1.845792 -1.902779 2.787105" Properties=species:S:1:pos:R:3:forces:R:3 id=mp-149-SC111_1019 energy=-9.98578625 stress="-0.1837204813618012 0.02556530251923646 0.12584261147146555 0.02556530251923646 0.04085354832310383 -0.0273069269842138 0.12584261147146555 -0.0273069269842138 -0.030216275391552642" pbc="T T T"
Si      -1.04273945      -0.09848548       2.26315992       6.11615300      -0.05272800      -4.86368600
Si       2.92013845       2.00740248       0.52394508      -6.11615300       0.05272800       4.86368600
2
Lattice="3.728635 0.0 0.0 -0.001663 3.747864 0.0 -1.813523 -1.842928 2.778379" Properties=species:S:1:pos:R:3:forces:R:3 id=mp-149-SC111_1148 energy=-11.25177521 stress="-0.03814018330231773 0.0075880273386648095 0.048258337436850963 0.0075880273386648095 -0.028925762240157638 -0.03167090278390361 0.048258337436850963 -0.03167090278390361 -0.012508920514638932" pbc="T T T"
Si       0.09369457      -0.85071362       2.08492894      -1.68063100      -1.52145500       0.09551400
Si       1.81975443       2.75564962       0.69345006       1.68063100       1.52145500      -0.09551400
2
Lattice="3.799233 0.0 0.0 1.813871 -3.360728 0.0 1.86753 -1.18274 -3.151941" Properties=species:S:1:pos:R:3:forces:R:3 id=mp-149-SC111_1129 energy=-11.28122659 stress="0.016405894118511906 0.0006088342491934084 -0.009993617302944484 0.0006088342491934084 0.026978099317425765 0.005450859715852871 -0.009993617302944484 0.005450859715852871 -0.051400437961003104" pbc="T T T"
Si       2.81506730      -2.85077672      -2.04820060      -0.54718400       0.14138500       2.40055900
Si       4.66556670      -1.69269128      -1.10374040       0.54718400      -0.14138500      -2.40055900
2
Lattice="3.817391 0.0 0.0 1.892149 3.317487 0.0 1.862456 1.130066 3.15526" Properties=species:S:1:pos:R:3:forces:R:3 id=mp-149-SC111_1093 energy=-11.33306771 stress="-0.01940110696689552 -0.018813312844965464 -0.0132674698432349 -0.018813312844965464 -0.03870899075348685 0.007128839512273577 -0.0132674698432349 0.007128839512273577 0.032972388508341915" pbc="T T T"
Si       0.92012502       0.57382767       0.32949118       0.92907900      -0.54364200       1.49714500
Si       6.65187098       3.87372533       2.82576882      -0.92907900       0.54364200      -1.49714500
2
Lattice="3.823614 0.0 0.0 1.776206 3.397059 0.0 1.835776 1.091634 3.216965" Properties=species:S:1:pos:R:3:forces:R:3 id=mp-149-SC111_1179 energy=-10.38967756 stress="0.03211924910894318 -0.010463003755247408 -0.009193025168876563 -0.010463003755247408 -0.12961669600215903 0.04924541338058202 -0.009193025168876563 0.04924541338058202 0.05039239054660908" pbc="T T T"
Si       2.80677659       1.52597386       1.31871759      -0.58592600       5.82584400      -2.39053000
Si       4.62881941       2.96271914       1.89824741       0.58592600      -5.82584400       2.39053000
2
Lattice="3.783347 0.0 0.0 -1.851588 3.301067 0.0 -1.834014 -1.128801 3.17178" Properties=species:S:1:pos:R:3:forces:R:3 id=mp-149-SC111_1021 energy=-10.8877661 stress="-0.03620610814495291 -0.055667739025842114 0.06377431718419443 -0.055667739025842114 -0.0026185939462186917 0.028372801980659137 0.06377431718419443 0.028372801980659137 -0.03707031998154096" pbc="T T T"
Si       2.05603721       1.11761128       0.45926423      -3.40116500      -1.55464900      -0.52814600
Si      -1.95829221       1.05465472       2.71251577       3.40116500       1.55464900       0.52814600
2
Lattice="3.742573 0.0 0.0 -1.794641 3.330254 0.0 -1.866729 -1.084826 3.173823" Properties=species:S:1:pos:R:3:forces:R:3 id=mp-149-SC111_1152 energy=-11.32082287 stress="-0.006666693210556678 -0.009786848588622223 0.01719239292497358 -0.009786848588622223 0.009088848140056446 0.0018340237660769143 0.01719239292497358 0.0018340237660769143 -0.02958293697753101" pbc="T T T"
Si       1.82770264       0.03017250       1.12388246       1.02108400      -0.07483900       1.60953500
Si      -1.74649964       2.21525550       2.04994054      -1.02108400       0.07483900      -1.60953500
2
Lattice="3.717763 0.0 0.0 1.794956 -3.276602 0.0 1.814311 -1.163454 -3.145423" Properties=species:S:1:pos:R:3:forces:R:3 id=mp-149-SC111_1061 energy=-11.3428963 stress="-0.013760792483035588 0.008757417763962919 0.0023814790145263868 0.008757417763962919 -0.022769374815733174 0.015463757040487209 0.0023814790145263868 0.015463757040487209 -0.05346293216863298" pbc="T T T"
Si       2.72514889      -2.80004150      -2.03037684       0.08290900       0.61116500       1.67106700
Si       4.60188111      -1.64001450      -1.11504616      -0.08290900      -0.61116500      -1.67106700
2
Lattice="3.841496 0.0 0.0 1.883229 3.385722 0.0 1.917114 1.113449 3.192593" Properties=species:S:1:pos:R:3:forces:R:3 id=mp-149-SC111_1178 energy=-10.70059753 stress="-0.07663366722870607 0.04902522542163912 0.05275804109399222 0.04902522542163912 0.03270610700450436 -0.034860494950994615 0.05275804109399222 -0.034860494950994615 0.0158777937898618" pbc="T T T"
Si       1.05308375       0.42379148       0.39840368      -3.81770300       2.83002600       1.35196800
Si       6.58875525       4.07537952       2.79418932       3.81770300      -2.83002600      -1.35196800
2
Lattice="3.780334 0.0 0.0 1.815476 -3.35597 0.0 1.854276 -1.189295 -3.187203" Properties=species:S:1:pos:R:3:forces:R:3 id=mp-149-SC111_1024 energy=-11.36369977 stress="-0.006415079253164947 -0.015735911804412223 -0.009456185918151179 -0.015735911804412223 -0.013557743708152355 0.012354917518466887 -0.009456185918151179 0.012354917518466887 0.028435797532266674" pbc="T T T"
Si       2.82741746      -2.87097057      -1.97528181      -1.29216100       0.61782500      -0.70585100
Si       4.62266854      -1.67429443      -1.21192119       1.29216100      -0.61782500       0.70585100
2
Lattice="3.755912 0.0 0.0 1.770197 3.346049 0.0 1.877268 1.064603 3.110963" Properties=species:S:1:pos:R:3:forces:R:3 id=mp-149-SC111_1073 energy=-11.31470091 stress="-0.0419419302014571 -0.014969985012029455 -0.0028397430975669866 -0.014969985012029455 -0.03959303810607695 -0.0045286143274123605 -0.0028397430975669866 -0.0045286143274123605 0.024318011818538206" pbc="T T T"
Si       0.92256861       0.58329021       0.31245890       0.38241200      -0.58180400       1.55923600
Si       6.48080839       3.82736179       2.79850410      -0.38241200       0.58180400      -1.55923600
2
Lattice="3.769949 0.0 0.0 -1.857499 3.315407 0.0 -1.765846 -1.152772 3.238073" Properties=species:S:1:pos:R:3:forces:R:3 id=mp-149-SC111_1198 energy=-11.38055931 stress="0.003529654550305619 -0.0009847228947906018 0.012531364981455607 -0.0009847228947906018 -0.029268402366641248 -0.020972669032719916 0.012531364981455607 -0.020972669032719916 0.03415041094076112" pbc="T T T"
Si       1.93736024       0.03264060       1.20567058       0.02209800      -1.47475500      -0.33234600
Si      -1.79075624       2.12999440       2.03240242      -0.02209800       1.47475500       0.33234600
2
Lattice="3.801121 0.0 0.0 -1.887145 3.335419 0.0 -1.827464 -1.108481 3.189857" Properties=species:S:1:pos:R:3:forces:R:3 id=mp-149-SC111_1101 energy=-11.117108 stress="0.015077326485976395 0.009775701253323395 -0.00941864324075899 0.009775701253323395 0.036027544810370515 0.008971944674128651 -0.00941864324075899 0.008971944674128651 -0.06298384253641957" pbc="T T T"
Si       1.88139252       1.12912531       0.51334688       0.42947700      -0.32159900      -3.44181200
Si      -1.79488052       1.09781269       2.67651012      -0.42947700       0.32159900       3.44181200
2
Lattice="3.689213 0.0 0.0 1.726668 3.337502 0.0 1.810327 1.12617 3.101364" Properties=species:S:1:pos:R:3:forces:R:3 id=mp-149-SC111_1012 energy=-11.05115042 stress="-0.029217671380466072 0.03863643945140758 0.010641448501156408 0.03863643945140758 -0.09417447991761385 0.02558962568030003 0.010641448501156408 0.02558962568030003 0.01195379445147375" pbc="T T T"
Si       0.98654756       0.64993944       0.33617855      -1.34427700      -2.44619200       1.61336900
Si       6.23966044       3.81373256       2.76518545       1.34427700       2.44619200      -1.61336900
2
Lattice="-3.74199 0.0 0.0 1.86323 -3.314664 0.0 1.800636 1.196989 3.176416" Properties=species:S:1:pos:R:3:forces:R:3 id=mp-149-SC111_1092 energy=-11.27753064 stress="0.005992984715508839 -0.009193555697152264 -0.009008276498750419 -0.009193555697152264 -0.05274929049819774 0.040244664141837416 -0.009008276498750419 0.040244664141837416 -0.0019653950501585054" pbc="T T T"
Si       0.91920221      -1.70048903       1.16835886      -0.29956000       2.37863700      -0.02668300
Si      -0.99732621      -0.41718597       2.00805714       0.29956000      -2.37863700       0.02668300
2
Lattice="3.735762 0.0 0.0 -1.843756 3.338077 0.0 -1.851603 -1.155709 3.143308" Properties=species:S:1:pos:R:3:forces:R:3 id=mp-149-SC111_1116 energy=-11.00791801 stress="-0.07384049827223643 -0.06525230654520359 0.050660482088093144 -0.06525230654520359 -0.012986801660862184 0.023427286051183403 0.050660482088093144 0.023427286051183403 -0.005153726432406073" pbc="T T T"
Si       1.76233830      -0.04475702       1.18000725       3.69807100       1.84014900      -0.93306300
Si      -1.72193530       2.22712502       1.96330075      -3.69807100      -1.84014900       0.93306300
2
Lattice="3.697673 0.0 0.0 1.759703 3.290031 0.0 1.766443 1.083107 3.173391" Properties=species:S:1:pos:R:3:forces:R:3 id=mp-149-SC111_1046 energy=-11.37427738 stress="-0.06444003030605201 -0.023074659510098378 -0.015539922176350359 -0.023074659510098378 -0.04364876449456677 -0.004230201534594756 -0.015539922176350359 -0.004230201534594756 0.019967873444580474" pbc="T T T"
Si       2.71202307       1.62719226       1.21897247      -0.56259100       0.03351300      -1.13889300
Si       4.51179593       2.74594574       1.95441853       0.56259100      -0.03351300       1.13889300
2
Lattice="3.760143 0.0 0.0 1.861308 -3.289415 0.0 1.875688 -1.122311 -3.131217" Properties=species:S:1:pos:R:3:forces:R:3 id=mp-149-SC111_1131 energy=-11.06663777 stress="-0.02161669915187418 -0.05831479425367483 -0.029961172430559537 -0.05831479425367483 -0.07161337177839314 0.01231372355823606 -0.029961172430559537 0.01231372355823606 -0.006172321997222842" pbc="T T T"
Si       2.92609356      -2.81753809      -1.95433970      -2.41169100       0.94706300      -0.93308800
Si       4.57104544      -1.59418791      -1.17687730       2.41169100      -0.94706300       0.93308800
2