54
Lattice="11.475659 0.0 0.0 -5.588046 10.055035 0.0 -5.725944 -3.381746 9.407083" Properties=species:S:1:pos:R:3:forces:R:3 id=mp-149-SC333_1172 energy=-300.38677544 stress="-0.01245342101549158 -0.0007944692136154282 0.003103584171336324 -0.0007944692136154282 -0.0008083191223657632 0.0038747787974213336 0.003103584171336324 0.0038747787974213336 -0.021459512986047938" pbc="T T T"
Si      -1.71571083       7.81689360       1.57750197      -0.68096600      -1.62025400      -0.32296600
Si       0.16669600       6.46500874       4.86769510      -0.14434400       1.07408800      -1.78515200
Si       2.06120221       5.40082353       7.80399376       0.94504300       0.41130400       1.59905600
Si       0.15932568       4.39651183       1.38059291       0.19035400       0.29391700       1.70159200
Si       1.98328880       3.41404540       4.71174448       1.28728900      -1.02478700      -0.05978200
Si      -7.50489883       2.14743345       7.85843255      -0.98446100      -2.94521000      -1.14240700
Si       1.96545279       1.27158792       1.46134331       0.35551900      -1.54885100      -0.17967100
Si       3.75500620      -0.05354028       4.87625554       2.59941100      -1.52406400      -2.98255600
Si      -5.38328665      -1.23398130       7.73479526      -2.23251500       0.51886000      -0.61248400
Si       1.95152303       7.63722313       1.39202251       2.87916600       2.35101700       1.42170200
Si       3.99154713       6.61620725       4.54337650       0.58511500       0.53678300       3.09267600
Si      -5.63173728       5.47123282       7.83421872       0.42186500      -2.78489100      -0.50080300
Si       3.97880331       4.28878072       1.56665560       2.53459400       2.52866000      -1.56144500
Si       5.76675981       3.11367822       4.56907666       0.23465600       1.59070600       0.54811000
Si      -3.70630657       2.25033772       7.68403464      -0.58402900      -2.09613400       0.25590000
Si       5.93331429       0.99685339       1.34414987      -0.11783800      -0.09117300       0.82834600
Si       7.69376583      -0.02703288       4.61861435      -0.03611000       0.40018400       2.89566300
Si      -1.85633342      -1.26865371       7.72199222       3.98264300       2.23975400      -1.07316700
Si       5.81135631       7.66036526       1.40078992       0.22722500       0.98929300       4.36337200
Si      -3.60015853       6.62064684       4.81330334      -0.20336200      -1.00904100      -1.45544300
Si      -1.66892170       5.33620886       7.82528199      -0.43277800       1.24366100       1.08823000
Si       7.81552984       4.37664840       1.43660268      -1.89307900       0.24781400      -0.80251400
Si      -1.60417254       3.17771985       4.59284835      -4.40223900       2.29008200      -1.35767500
Si       0.06399208       2.15827727       7.54873257      -0.00009800      -0.17572800       2.83335000
Si       9.64893780       1.07017405       1.37161855       0.27663400      -0.23043700       1.15631700
Si       0.15899871      -0.22336350       4.59429705      -0.01264000       1.25572500       3.03713600
Si       1.97027670      -1.26371757       7.81664629       0.83720700      -0.64857000      -0.77896200
Si       0.28295376       6.68453790       2.28570481      -3.13202600      -2.16580100       1.74280400
Si       2.10618996       5.55770456       5.58227594       0.70614400      -0.17263900      -1.31078900
Si      -7.48337699       4.15996549       8.60399092      -0.13439100       3.31046600       1.14998100
Si       2.23277553       3.38530568       2.36464905      -3.50717600      -0.83673900       0.58253800
Si       3.99576800       1.99761704       5.49895740      -1.31738100       2.66720900       0.67337800
Si      -5.65108042       0.96990087       8.51827358       1.16419600       0.32264200      -0.55017200
Si       3.87614255      -0.02835364       2.09989610       0.00545100       1.19586700       1.41771300
Si       5.82826340      -1.30251725       5.41446298      -0.46562600       0.74755000      -0.07426600
Si      -3.53465576      -2.27126857       8.37019668      -2.99090800      -3.31924200       3.02053500
Si       3.90984165       6.71963702       2.37577763      -0.40231800      -1.36442500      -2.75833400
Si      -5.54665305       5.43253391       5.50747081      -0.65299900      -0.10929200      -0.97607900
Si      -3.58620117       4.27054460       8.58599517      -0.87127900       1.71787200      -0.85181500
Si       5.96517643       3.23300274       2.30781145      -0.57632200      -0.52970200      -1.25376800
Si      -3.75253029       2.34008253       5.37803876       1.27942800      -1.44129900      -0.32649900
Si      -1.84474610       0.99676756       8.47539609       0.22890800       0.10105900       0.56763600
Si       7.80826985      -0.07786946       2.48939637      -0.25303900      -0.38653700      -4.64290400
Si      -1.81306827      -1.09030641       5.41362575      -0.66790700      -1.20890400      -0.63748800
Si       0.14475918      -2.48031568       8.32707461      -1.01105400       1.85577900       1.80570900
Si      -3.80587945       6.50064651       2.16664876       1.44809500       1.60971000       1.64890600
Si      -1.72214003       5.35619785       5.60863458      -0.31215600      -0.17893600      -1.88917300
Si       0.17230607       4.35304150       8.72272712       0.43083100      -0.72619300      -4.03956700
Si      -1.91573785       3.37643597       2.24337293       3.00546000      -1.65956900       0.22870200
Si       0.08243127       2.23019243       5.34405097       3.16027800      -2.84185000      -0.42313400
Si       1.88123024       0.86526645       8.48211275       0.65591400       2.08474400       0.18300200
Si       0.16452827      -0.08571973       2.48015862      -0.49943700       0.44997800      -4.86844900
Si       2.04919649      -1.22045142       5.50884425      -1.63168600      -0.87111400       0.36195600
Si       3.97423717      -2.33863634       8.34787368       0.70873400      -0.52334500       1.01315300
54
Lattice="11.451434 0.0 0.0 5.696223 9.978902 0.0 5.645015 3.239349 9.476466" Properties=species:S:1:pos:R:3:forces:R:3 id=mp-149-SC333_1127 energy=-300.51932839 stress="-0.020894887345993162 -0.008060035224800604 -0.006487112509986764 -0.008060035224800604 -0.017664706645056545 0.00032969523655653133 -0.006487112509986764 0.00032969523655653133 -0.002161996346114702" pbc="T T T"
Si      14.94582996      10.97747996       7.90842360       3.90968600       0.24308300       2.23288600
Si      17.29130212       7.61558034       7.97957291      -3.01823200       0.86943000       0.35449700
Si       7.73094553       4.32499142       7.83522738      -0.37872300       1.21452600      -0.16890600
Si      17.24920946      10.05145770       4.86799425      -1.11763000      -1.21285700      -0.84102500
Si       7.59104460       6.83407207       4.82318952      -0.11017000      -2.61537700      -1.03072300
Si       9.58467991       3.20884730       4.73829934       2.60185100       2.33182300       1.96042700
Si       7.52572391       8.75744899       1.54709941       2.94447300       1.52342600       1.62263700
Si       9.63702116       5.51097632       1.82513892      -0.12848100       0.92363900      -2.21820500
Si      11.40270284       1.98924713       1.52117180       2.79862700       2.15149500       1.12506400
Si      18.78376049      11.28155641       7.88638134       0.31204800      -5.60790600      -0.12698900
Si       9.38956119       7.82796922       7.87756823       0.79633600      -1.45277900       0.81590000
Si      11.43790227       4.33365943       7.79574842      -0.13591300       1.12114200       1.00820300
Si       9.57015365      10.12521159       4.66717846      -2.35535100      -1.08684100       1.20658500
Si      11.38837239       6.64181419       4.75804829       0.77265300       0.69993100      -2.24420800
Si      13.45060205       3.41669992       4.68949554      -0.00171000      -1.08244100       0.50153700
Si      11.31322741       8.97232777       1.46338431       2.27389000      -0.84635100       1.98916800
Si      13.22265010       5.60342763       1.72289733       1.46693500      -0.72673100      -3.15354400
Si       3.93588914       2.24929550       1.58553596      -0.84874800      -0.76791200       0.06305900
Si      11.33421074      10.91126425       7.93260754      -0.01709900       1.12279700       0.06074800
Si      13.33716608       7.62912503       7.81426543      -0.56668400       0.89327000       1.36650500
Si      15.34007543       4.44929853       7.78992039       0.05073600      -4.70979400       0.88780200
Si      13.37921056       9.97432579       4.69597744      -0.35563500       0.74206400       0.73256500
Si      15.25792715       6.70101949       4.77430991       0.43712400      -2.81114800       0.74714900
Si       5.78092332       3.19044624       4.67340450       2.04639600       1.66726800       1.42769500
Si      15.21806258       8.95081344       1.61308404      -0.28070800      -0.73410400      -0.50408200
Si       5.71375428       5.53793755       1.54292976       0.79993800       1.47098000       0.89284200
Si       7.77968693       2.20494456       1.62157496      -0.45280500       1.38135700      -0.18038100
Si      16.97160739       9.74791905       7.08411321      -0.00751400       1.66368000       1.29555500
Si       7.54143795       6.66765297       7.08178199       2.14120800      -1.90022800       0.14170300
Si       9.52677831       3.12030294       7.17350471       0.85738800       0.62259000      -1.21741100
Si       7.58643363       8.88915630       3.99890755       0.56289700       1.57586300      -1.23101300
Si       9.53981196       5.55440286       4.02689156      -0.84163600      -0.46798000       1.77357300
Si      11.52778759       2.17970522       4.00542736       0.25016500       0.41415600      -1.25492400
Si       9.57010400       7.77969767       0.93718458      -1.75628700      -1.47671000      -1.25306200
Si      11.46674574       4.47581248       0.79440267      -0.19950200      -1.73969500       0.95759600
Si       1.98604912       0.95711384       0.65317490      -0.02762300       0.92606900       1.33892700
Si       9.47077113       9.87520015       6.99636113      -1.24659600       2.16450200       0.37135500
Si      11.31628227       6.69507191       6.90629680       0.11938600      -0.78713600       3.39648000
Si      13.35812503       3.20666009       7.12495677       0.83368200       4.32008500      -1.93635700
Si      11.29081814       8.97311783       4.10160401       2.64067700      -1.65511000      -2.20973800
Si      13.34480817       5.56947317       3.85699747       0.10117900       1.02491800       3.12800600
Si       3.98949183       2.23478295       3.98068431      -2.58313200       0.61589000      -1.69120300
Si      13.27898968       7.63179249       0.61540170       0.18734100       2.00359900       2.01203900
Si       3.91147998       4.45018706       0.88063851      -2.22447800       0.16674400      -1.13794900
Si       5.83436531       1.13135249       0.88985911       0.13012500       1.00967700      -1.79742100
Si      13.28188508       9.96732822       7.16498537      -2.34630700      -2.58072000      -2.18722300
Si      15.23959427       6.44014648       7.25624373       0.48934200       4.53943100      -2.18483800
Si       5.87107256       3.24381786       7.07242872      -1.24341600      -0.75349000      -0.12957500
Si      15.26991599       8.75460864       4.03974164       0.56112900       2.65237300      -1.10629300
Si       5.74207812       5.40610845       3.89652381      -0.26091900       1.47555100       0.63464500
Si       7.82986563       2.39235611       3.95933383      -2.85616700      -3.24097900      -1.42313100
Si       5.76709628       7.83921477       0.82956036      -3.31421800      -1.72111200      -1.00903300
Si       7.69264908       4.60933375       0.94192281       0.21653900      -1.86071900      -1.66908200
Si       9.60598349       1.20173331       0.64592540      -1.62606800      -1.69324100      -0.13883500
54
Lattice="11.452604 0.0 0.0 5.612743 10.011298 0.0 5.685298 3.386636 9.382758" Properties=species:S:1:pos:R:3:forces:R:3 id=mp-149-SC333_1051 energy=-299.49037346 stress="-0.01638514734217747 -0.0020294641413356965 -0.002436135909941746 -0.0020294641413356965 -0.010134525612970423 0.0019153568714962992 -0.002436135909941746 0.0019153568714962992 -0.03108857622396783" pbc="T T T"
Si       5.75105983       5.58069919       1.38638694      -1.47799600       0.12869400       5.84794300
Si       3.63058031       2.12605484       1.64445970       1.34662300       2.65062400      -1.80029600
Si       7.29994493       8.90294587       1.38527039       0.95212500      -0.02625300       3.69968300
Si       7.59203742       2.33518932       1.59233848      -0.17536800      -0.57724800       4.79055000
Si      11.38383691       8.79533200       1.71286000      -2.78512200       0.66250600      -1.72410600
Si       9.41265895       5.56674087       1.54076146       1.40314700      -0.37764100       1.47000500
Si      15.14011527       8.93396937       1.46525840      -1.09702900       0.63890200       3.09954600
Si      13.23365544       5.58881327       1.39680180       1.19953100       0.21919900       0.90084500
Si      11.33264924       2.38895396       1.78081932       0.71599000      -1.60865700      -1.97124600
Si       5.73712863       3.47781964       4.65240302      -1.15894700      -0.58466200      -0.64924800
Si       9.40850378       9.96683854       4.83176383      -0.57513500       0.56625900      -0.16050700
Si       7.46397703       6.71293923       4.72104728       0.26257200      -0.83282400      -1.38310300
Si      13.33432450       9.99602594       4.58736174      -0.57644600       0.37890000       2.28600300
Si      11.34420270       6.77788827       4.82011044       0.51830200      -1.37957900      -1.91015000
Si       9.26678135       3.36482004       4.87639761       4.09578800      -0.76711400      -2.03771300
Si      15.08035343       6.63385457       4.65302229      -0.21191300       1.96594800       3.09890700
Si      13.40365693       3.31800986       4.78651078      -1.50311400       0.35426100      -1.34426300
Si      17.00508605      10.05166198       4.74347207       0.13289000       1.22736800      -0.25671900
Si      11.36270008      11.19038668       7.79066347      -2.07824900      -0.08324600      -0.52284100
Si       9.41051904       7.88416532       7.91514452       0.48045500      -0.83495400      -0.78029000
Si       7.49103057       4.36139660       7.91011537       0.24913100       1.44387800      -0.82247600
Si      13.32854147       7.78666594       7.81160579      -0.76030800      -0.21008400       4.11282700
Si      11.49677563       4.60442681       7.95611903      -1.25990900      -0.89685200      -1.59550100
Si      15.11412378      11.30249051       7.84072049       0.17136400      -1.40157800       1.96903600
Si      15.08594783       4.58656668       7.87901152       1.17968800       1.02369500      -0.71004500
Si      18.96620711      11.28167957       7.92843051       0.00170600      -0.51916800       0.74396900
Si      17.02726908       7.89137792       8.05062217       0.37477700       0.09824900      -2.91844100
Si       5.69791588       3.41706205       2.29050012      -1.30518900      -0.20097900       0.04353100
Si       9.07175344      10.15627955       2.45334727       1.16875500      -3.43163400       0.73167400
Si       7.59362536       6.65140642       2.19018905      -1.06346900       1.38880700       1.73726500
Si      13.01542967      10.08499173       2.37230838       2.57602000       0.54626400      -0.91987200
Si      11.44145037       6.59429169       2.31023206      -1.21401100       0.19292400       1.36326700
Si       9.46475032       3.37263389       2.42045132      -1.02874500       0.90024000       1.30846600
Si      14.92812554       6.86279541       2.56699123       0.85913700      -0.72330100      -4.78074600
Si      13.26949703       3.43327343       2.20069774       0.69045400      -0.04478000       2.03304200
Si      16.99928128      10.08686396       2.33566871      -0.50219000       0.30299000       0.40963100
Si      11.38020074      11.28285367       5.39684043      -0.05111400      -1.37765100       0.09709600
Si       9.41629387       7.63426382       5.45707773      -0.74145200       2.03031000       1.33111400
Si       7.57092484       4.42785367       5.44475817      -2.32746200       2.85573700       2.39004500
Si      13.13327793       7.81941339       5.70623687       1.36241900       0.56529300      -3.63362200
Si      11.34300353       4.55749576       5.45786588       0.61319500      -0.92052200       0.97586400
Si      15.10675943      11.24184283       5.64501437      -0.13523000      -1.34625900      -2.20921200
Si      15.23072050       4.55472471       5.36850450       0.18129000      -1.32334300       1.74776200
Si      18.88029382      11.16373885       5.72671005       0.85555900      -0.52434900      -2.34084000
Si      17.02895050       7.87203803       5.32545640      -0.77101600      -0.88128300       2.02088600
Si      11.32881519       9.04595309       8.75075419       0.11825800      -0.53921300      -5.91037100
Si       9.47781511       5.55904690       8.57229413      -0.72201500       0.21159000       1.01361100
Si      13.12336741      12.19704762       8.65627920       1.16606900       0.70601300      -2.22545900
Si      13.25175940       5.52635672       8.95407855       0.83086700       1.23845200      -5.59145600
Si      17.06313559      12.34572456       8.54929699      -0.55831100       0.45727500       1.80161600
Si      15.17235848       8.90286805       8.72605877      -0.98316000       1.56700600      -1.81162600
Si      20.78468284      12.48156803       8.69028231       1.36612300      -1.36092200      -2.22195500
Si      18.92061510       9.00258850       8.49811404       0.74702600       0.67598900       0.13428600
Si      17.12104492       5.76678168       8.65705797      -0.55636000      -2.22327300       1.07363500
54
Lattice="11.467297 0.0 0.0 -5.644224 10.010242 0.0 -5.708617 -3.34015 9.403559" Properties=species:S:1:pos:R:3:forces:R:3 id=mp-149-SC333_1046 energy=-301.80782215 stress="-0.014516795275908198 0.0014602572335825211 -0.0006054638342654314 0.0014602572335825211 -0.0038234486263700697 0.0067628436586409085 -0.0006054638342654314 0.0067628436586409085 -0.01828352730885137" pbc="T T T"
Si       0.08474782       6.77192596       4.71050600      -0.98121000      -1.62603400      -0.75794200
Si      -1.72560900       7.84633831       1.46534720      -1.67605600       0.26258000       2.30900000
Si       1.92216854       5.45333266       7.68213409       0.59837200       1.59499800       0.58685600
Si       1.97151045       7.97407941       1.65788507       1.53415100      -0.40022200      -1.63207900
Si      -5.59275395       5.54579905       7.86164803      -1.58437600       1.46953800      -0.61972800
Si       3.86840445       6.69871358       4.58365199       1.60414800       1.29802600       2.96331600
Si      -1.74281933       5.60552846       7.82946905      -2.64313600       1.05172700      -0.41068200
Si      -3.81715892       6.72228451       4.73077067      -0.42803700       0.85092100       0.68642800
Si       5.82482237       7.84015837       1.37390699      -0.52997000      -1.25181600       0.48440900
Si       0.08489760       4.49670871       1.49046410       0.99294800       0.62732800       1.60498800
Si       3.67486242       2.09588552       7.83511118       3.58750500       2.69254500      -0.89069100
Si       1.81934686       3.45489529       4.76632553       0.76776700      -0.69450900      -1.08728300
Si      -3.83813454       2.31550448       7.83256282       1.98962000      -0.54412900      -1.41738000
Si      -5.64893057       3.46077889       4.60704805      -0.68117200      -0.39790100      -0.74095800
Si       3.86330932       4.63938108       1.49123519       1.28970100      -1.09126000      -0.03671900
Si      -1.72998971       3.38351045       4.74364414      -3.08328200       0.74648300      -1.94532500
Si      -3.85217082       4.50591711       1.65006130       0.88271100       0.77091400      -0.25285500
Si      -0.07166714       2.21043291       7.75157937       2.45173800       0.20350700       1.23097500
Si       5.83507728      -1.08060402       7.67698094      -0.25964700       1.03015000       2.70778800
Si       3.93227810       0.10464317       4.77823043      -0.16896300      -0.14473500      -0.14493300
Si       2.01789477       1.13736761       1.66748610      -1.66760800       0.87369500      -1.36023800
Si       7.61203989      -0.12880179       4.70291733       2.36215200       2.30788800       0.55811800
Si       5.82858483       1.02388735       1.53140720      -1.92976400       0.49376900      -0.04866800
Si      -1.82848647      -1.20193413       7.68426869      -2.07859700       0.37950900       4.83152600
Si      -1.91782608       1.40452296       1.52358344       0.39011500      -3.96910200      -0.20346200
Si       2.08076943      -1.18867484       7.83443413      -1.64184000       1.36153400      -1.26462000
Si      -0.00770681       0.12376470       4.50536736       0.39913500      -0.41591900       0.66127600
Si       0.15676340       6.84438351       2.27583054      -0.75003300      -1.58534700       1.03983700
Si      -7.67994562       4.57577632       8.69225499       0.78661900      -1.51302700      -2.23783900
Si       2.06438376       5.66513996       5.38437444      -1.44334100      -0.39859700       0.29613000
Si      -3.75311622       4.44818372       8.54117741       1.29911400       0.83922500       1.70477300
Si      -5.70074253       5.55180734       5.42125520      -0.29069900       1.00153100       0.98723800
Si       3.89814978       6.75404621       2.44609138       0.03822400       0.88248100      -3.32624900
Si      -2.01755871       5.55473898       5.49878755       2.02624800       0.65299400      -0.08689700
Si      -3.81985219       6.87722307       2.49909924       1.11677100      -1.00057400      -2.37598700
Si       0.00357887       4.47558800       8.41324199       1.33731000      -1.66602800       0.96968900
Si      -5.55884549       1.25982096       8.69953334      -2.50005700      -1.45485300      -2.04422400
Si       3.90116502       2.39864105       5.36627259      -0.92665900      -0.55393800       1.28617000
Si       2.09101792       3.45278057       2.30207588      -1.48480300      -0.56768000       0.83415000
Si      -3.87575551       2.35433231       5.38491045       1.50173900      -1.59923600       0.87460700
Si       5.81165535       3.23564131       2.27557665      -1.04483400       0.82203300       0.02766100
Si      -1.76168753       1.08056166       8.53138831      -2.68613400      -0.50694400       0.49943600
Si      -1.78842854       3.39763203       2.22491967      -0.57825600       2.94825200       2.22923500
Si       2.02385769       1.01989876       8.66280304      -2.66944000      -0.51086400       0.68902200
Si      -0.11292573       2.23626454       5.54252350       2.53036300      -0.85146500      -0.95206100
Si       5.84901321      -1.14447446       5.47793045      -1.90290400       0.36712300      -0.65316600
Si       3.72767215      -0.00130837       2.46312123       2.48012400      -0.70042500      -0.44770500
Si      -3.88292157      -2.28687296       8.61224011       1.00056400      -0.35136300       0.01129500
Si       7.70022883       0.13088416       2.42454783       0.86676900       0.07579600      -0.49140500
Si       0.03341794      -1.95299727       8.58249665       1.47247500      -2.73528700       0.70098400
Si      -1.72093509      -0.95880072       5.66115880      -1.04164900      -0.54801000      -5.92481700
Si       3.89310722      -2.15334326       8.63139516       1.39108800      -0.76217800      -0.34478000
Si       1.91678088      -0.98119986       5.41094890       0.20369700      -0.24922000       0.69305300
Si      -0.01630914      -0.08284032       2.17318129      -0.22870200       2.48611600       0.23073100
54
Lattice="-11.428723 0.0 0.0 -0.028178 -11.45841 0.0 5.708657 5.706379 8.15213" Properties=species:S:1:pos:R:3:forces:R:3 id=mp-149-SC333_1033 energy=-298.93331145 stress="-0.031683928813449336 0.003182239669340705 -0.0029695040722941004 0.003182239669340705 -0.019805107369595693 -0.010317095996411636 -0.0029695040722941004 -0.010317095996411636 -0.025263600451109522" pbc="T T T"
Si      -5.60850045       1.80354748       5.35698473      -0.56551100       3.07447300       2.13848400
Si      -5.68328388      -1.98176932       5.59519812      -1.43364400       0.63421200      -3.21886600
Si      -5.58505455      -5.77198892       5.35206900      -0.73378900      -0.56079600      -0.77842000
Si      -7.69439502       0.09906533       2.68804259       1.14146500      -0.70805900       0.70482400
Si      -7.49984648      -3.78354103       2.70596097      -0.34597800      -0.18949200      -0.52561700
Si      -7.72831043      -7.65540305       2.78247686       2.64849500      -0.20578100      -2.42229700
Si      -9.34186952      -2.22711464       0.01664665      -1.58104300       3.24583700       0.93688700
Si      -3.78657730      -0.22490573       7.97383476       1.02234700       6.02922100       3.94953500
Si      -3.87177552      -4.06846082       7.93000891       2.30467600       3.52811700       1.05705300
Si      -3.82480709       0.06516984       2.77656657      -0.80688900      -0.65290700      -2.47515800
Si      -3.80346268      -3.78449349       2.63280375       1.16408600      -0.37950000       0.55691100
Si      -3.86937726      -7.76886028       2.45163897       1.30444700       1.26555800       1.11370600
Si       0.01029149       3.65765565       8.02722306      -0.32623700       3.12326400       2.36477400
Si      -5.71871760      -5.82905747       0.04435574       2.87948200       1.06911500      -1.77660500
Si       0.10978180      -3.72113998       7.91390846       0.05498300      -7.08315200       4.12312900
Si      -1.89476442       1.78515878       5.42991369       2.18350600      -0.48562000      -1.25985000
Si      -1.73766714      -2.08274346       5.40584860      -2.21514300       0.88507500      -0.68057800
Si      -1.92253099      -5.85364676       5.46237547       0.55910200      -0.75603100      -1.25799700
Si      -1.82980456      -2.15280439       0.16309151       0.43729500       2.37994800       0.22526000
Si      -1.83934847      -5.61806545       0.01888033      -1.72031400      -1.16346500      -2.05643800
Si       3.85064952      -3.93550588       8.03328825       1.06834300      -1.27212300       1.05111500
Si       2.01076867       1.87473543       5.45428040      -0.75627300      -0.01541300      -0.70747300
Si       2.00300464      -2.02607305       5.45189183      -1.74464800      -0.02229100      -1.13720400
Si       2.03733901      -5.86790066       5.43359845      -0.01409900       0.75118500      -1.76224200
Si       0.14225592       0.07160271       2.73396353      -1.79641900      -1.80411300      -0.43749200
Si       0.13271510      -3.87348375       2.77141442      -5.05557100      -1.68130600      -3.66327300
Si       0.04015327      -7.92282431       2.73715917      -0.10553200       0.72679000      -1.64993700
Si      -5.59833460       0.07896824       4.13636631      -2.06314200      -3.34304800      -1.08091600
Si      -5.53379515      -3.74985443       4.03021742      -1.41906500      -0.60101400       1.31726400
Si      -5.60690211      -7.78582571       3.92326148      -1.25863500       0.74423800       0.75609900
Si      -7.62564772      -1.84439469       1.34749818       1.84509700      -0.39480600       0.64965100
Si      -7.46325953      -5.72371216       1.25071609      -3.33969400      -0.25317000       2.22013200
Si      -7.55857892      -9.61450968       1.25374053      -0.47533300       1.37780100      -0.78998700
Si      -3.65928195       2.00332296       6.66514888      -1.92980700      -3.45596700      -0.37778000
Si      -3.93720029      -1.79670264       6.77309938       3.39575000      -6.12622700      -2.44099100
Si      -3.83338186      -5.86440222       6.80731387       0.69283600      -2.94412200      -0.97646300
Si      -3.85872744      -1.94379101       1.34966664       0.21042400       1.16347800      -0.35870400
Si      -3.70413326      -5.67396121       1.36173180      -0.93763600      -0.97863600      -0.39383600
Si      -3.70119904      -9.60777725       1.23101239      -0.90118900      -0.74953700      -0.75683500
Si       0.14203898       1.96314214       6.77222711      -1.19224400      -3.55838700      -1.33700900
Si      -0.02050093      -2.03576786       6.89068571       0.94576200       5.41337500      -3.85300600
Si       0.14881673      -5.88279251       6.64345606      -1.33699900       0.86182000       0.89270600
Si      -2.00103817      -0.09618934       3.93125056       3.03878100      -0.39605800       2.00010200
Si      -1.87253472      -3.96177284       4.00596483       0.11048600      -0.04353800       0.44906900
Si      -1.93569794      -7.92506744       3.92295169      -0.70871800       1.41277500       0.60326500
Si       3.78234526       1.95802302       6.78555584       2.02586600      -1.21596200      -0.55580900
Si       3.81641296      -2.11766563       6.75315927       0.08723500       2.12330000       0.91055800
Si       3.90142620      -5.90496691       6.76502878       0.58051900      -0.50280100       0.45816100
Si       1.88102588      -0.00653318       4.12569517       1.12671700      -0.69574900       0.86389200
Si       1.82849911      -3.85741452       3.82559896       5.62982500      -0.55847800       4.72834700
Si       1.93573066      -7.76231530       4.03864672      -1.23984100       0.53701300       1.24895900