16
Lattice="7.490977 0.0 0.0 3.628733 6.57217 0.0 3.706412 2.205164 6.327866" Properties=species:S:1:pos:R:3:forces:R:3 id=mp-149-SC222_580 energy=-88.90212873 stress="-0.053294205452432984 0.01744141041456895 0.013517105242233731 0.01744141041456895 -0.03751389155209922 -0.005606909927018204 0.013517105242233731 -0.005606909927018204 -0.007306067163903032" pbc="T T T"
Si      11.24744306       6.63174874       4.75369543      -1.92859800       1.53005100       0.83056400
Si       5.56600750       3.45522171       4.77957007       0.48598500      -2.73998000       0.65894900
Si       9.30194554       3.32990991       4.72666912       0.44592200       0.96914100       0.00818400
Si       7.65479751       6.64872194       4.68626569      -3.83874900       1.57756300       0.72482000
Si       7.45501236       2.34606509       1.54928307       1.28936200      -0.13121100       0.40901200
Si       5.71566422       5.59341477       1.44606925      -3.20368900       0.51402000       2.52514800
Si       9.44838521       5.69470242       1.60138672      -0.60264600      -1.08584200      -1.09692900
Si       3.84692554       2.21274224       1.60312688      -2.35263500       1.84039700      -1.12646500
Si       7.44634063       2.30383730       3.82563162      -0.25662100      -0.46845800       1.51400600
Si       5.44606512       5.45587393       4.07801856       3.05943900       2.49219000      -2.68354800
Si       9.31601482       5.62399234       3.84479240       2.33717700      -2.09574100       0.61538500
Si       3.76123152       2.37261808       3.77703994      -0.23343800      -0.90724600       2.90732800
Si       7.42879418       4.48711562       0.88291449       3.20266200       0.17983900      -1.87566400
Si       1.87859093       1.20902117       0.83534792       0.22243800       0.21011500      -0.65527600
Si       5.63903806       1.30229529       0.87840905       0.90596500      -1.96895200      -2.55499900
Si       3.77418810       4.45019524       0.73598777       0.46742400       0.08411400      -0.20051600
16
Lattice="7.636066 0.0 0.0 -0.042026 7.656344 0.0 -3.786823 -3.812997 5.458174" Properties=species:S:1:pos:R:3:forces:R:3 id=mp-149-SC222_588 energy=-88.21323244 stress="-0.015086195670444278 -0.0037619822444983717 -0.005020183103148674 -0.0037619822444983717 -0.02010501188309438 0.020390436095421023 -0.005020183103148674 0.020390436095421023 -0.025884543228007137" pbc="T T T"
Si       0.06145410       3.80046561       2.79447047      -0.14077900       1.90323900      -1.62215900
Si       2.01669126       5.67087419       0.04547751      -2.03032600       2.29799200       0.67932500
Si       3.77271342       3.84357612       2.69585764       2.36498700       1.04827300       0.65388400
Si       2.11983805       1.82313362       5.34426191      -2.30866300       2.87154600      -2.20917500
Si      -1.87088742      -1.89664978       5.43845362       0.46679300       1.80748800      -1.50479200
Si      -0.25460199       0.13733109       2.82655361       3.47534200      -1.10069500      -0.12702100
Si       1.97691699      -2.01009699       5.44145015       0.40801600       0.77922700       0.98817300
Si       3.87066485       0.11858197       2.60394744       0.34234000      -0.89190300       1.00584100
Si       2.05504587       3.82935303       1.30465096      -1.89586400      -0.93474900       0.77350800
Si      -0.12080021       1.96885880       4.08095662       2.32199900       0.17036000       0.43444700
Si       5.81897529       4.08035520       1.22218341      -0.44667700      -5.45042700       3.59826200
Si       3.89762973       1.90626773       4.05050001       2.01970200       0.67708500      -0.57210400
Si       0.06829100      -1.82327280       4.11747180       0.10273300      -0.57460900      -0.33512800
Si       2.04566640       0.24959937       1.31863480      -2.26386200      -3.29455400       1.23770500
Si       3.90937843      -1.76912053       4.08129503      -1.18699900      -0.85377300      -0.66723800
Si       5.79590077      -0.30443898       1.43621478      -1.22874200       1.54550000      -2.33352900
16
Lattice="-7.565529 0.0 0.0 -3.68711 -6.738776 0.0 -3.666166 -2.417359 6.405763" Properties=species:S:1:pos:R:3:forces:R:3 id=mp-149-SC222_605 energy=-87.86512045 stress="-0.003187207910604908 0.00031557070140465754 -0.00012018025821888214 0.00031557070140465754 -0.04351986484809903 -0.02688304737494769 -0.00012018025821888214 -0.02688304737494769 0.021291104586813357" pbc="T T T"
Si      -3.69201654      -2.22554700       1.53413540      -0.36923700      -3.37237900      -1.34736600
Si      -9.36315993      -5.59780416       1.83825540       0.78406400      -3.90915200      -2.72068700
Si      -7.50530137      -6.82660254       4.68848684       1.38097700      -1.73169600       0.66591700
Si      -9.26401691      -3.44854196       4.74071943      -0.94607500      -1.73412100      -0.42953700
Si      -5.70185649      -5.56041968       1.71110101       1.18191100      -2.40170600      -1.31455100
Si      -7.28195122      -2.40666175       1.71650107      -4.25309700       1.94719400      -2.68137600
Si      -5.47223725      -3.33163671       4.72537763       0.09931300      -4.81168700       0.55780900
Si     -11.10555471      -7.08929349       4.73246881       0.32681200       1.85503400      -0.33407500
Si      -7.43228961      -6.98560144       2.36546891      -0.59700900       3.18116800       0.99995700
Si      -9.39026728      -3.55843110       2.28458335       0.63621900       4.31166000       1.60270200
Si      -7.38453871      -4.68910781       5.46806819       0.13169100       1.37942500       0.63825400
Si     -12.91917922      -8.09211068       5.53575149      -2.19536500       1.08692400       1.58613900
Si      -5.67700078      -3.47796481       2.50917580       3.66888800       0.02616100      -0.09818400
Si     -11.19516827      -6.86287626       2.35618696      -0.98769400       0.04932200       0.43056900
Si      -9.24156663      -8.18034208       5.58589580       0.06249600       4.21069000       2.30558400
Si     -11.22347552      -4.73065919       5.57983595       1.07610600      -0.08683700       0.13884300
16
Lattice="-7.537625 0.0 0.0 3.753749 -6.608461 0.0 3.699292 2.31091 6.268492" Properties=species:S:1:pos:R:3:forces:R:3 id=mp-149-SC222_1175 energy=-88.5995312 stress="-0.01307212309061301 0.0008685184778849073 -0.0014698753991455073 0.0008685184778849073 -0.03617010712031481 0.011823839989963735 -0.0014698753991455073 0.011823839989963735 -0.049560753146149016" pbc="T T T"
Si      -0.01797117       0.06788462       4.76723205      -0.34482800      -1.65214600      -2.08204100
Si      -1.84296589      -1.15206834       1.57553532       0.13057000      -0.24758300      -1.88898000
Si      -5.64211925      -1.06115114       1.57158617       0.93068000      -4.37408900       1.45875600
Si       3.62627942      -0.01616482       4.73307503       2.28532900       1.19998600       0.04192500
Si      -3.72279218      -4.46598389       1.55641642      -1.85398900       0.55834900       0.07103300
Si       5.46160036      -3.20814650       4.68617418       1.64921900      -1.76541700       0.57244400
Si       1.82304065      -3.28328852       4.79479460       0.16809500      -1.15263400      -1.07804200
Si       0.01965608      -4.59819543       1.68068927      -2.30436800       0.75478100      -4.91040600
Si      -3.73562776      -2.32583897       0.72408605       0.02073900       1.27081000       1.18402200
Si      -2.00823277      -1.22503265       3.76245546       0.32187400       2.64213900       2.14030300
Si       1.94540532      -1.16177360       3.93444408      -2.13565800       0.20054500      -0.21851400
Si       0.11414154      -2.33588367       0.85082242      -0.96510400      -0.17492900      -0.36829400
Si       3.77067074      -4.44818983       3.82688302      -1.13068700       0.46402600       1.28027700
Si       1.80764540      -5.49611267       0.84729953       1.90862600      -1.41658100      -1.35604300
Si      -2.08306254      -5.73351466       0.85728523       2.16238800       3.24038100      -1.81811800
Si      -0.00197761      -4.39870489       3.68717087      -0.84288700       0.45236200       6.97167800
16
Lattice="7.574979 0.0 0.0 3.710972 6.656218 0.0 3.760085 2.155868 6.302442" Properties=species:S:1:pos:R:3:forces:R:3 id=mp-149-SC222_883 energy=-88.11884635 stress="-0.0582207659186934 0.0017392214839638735 0.0045966467768844875 0.0017392214839638735 -0.03378807261147622 -0.01160694754783929 0.0045966467768844875 -0.01160694754783929 0.012501337081050985" pbc="T T T"
Si      11.27690264       6.71240791       4.70291373       0.76592200       0.23368700       1.24021700
Si       7.66139415       6.58118113       4.62679284      -4.20771900       1.69633000       2.82662200
Si       5.54713249       3.48814213       4.73898891       2.20420700      -1.81886800       0.54440100
Si       9.35153968       3.22102122       4.73011507       2.80343800       1.62649400       1.50603200
Si       5.68022107       5.59381990       1.57861046       1.80516700       1.21446700       0.69603200
Si       9.57601909       5.42920538       1.60815001      -0.00989200       1.59383400       0.98687600
Si       7.96206677       2.25151045       1.52639473      -6.50167700       1.44611900       2.38977500
Si       3.90918749       2.32808841       1.67826468       0.73310500      -2.21189300       0.66577000
Si       5.61540917       5.51613270       3.98159925       0.08866400       2.53897700      -1.22252700
Si       9.37287169       5.62355769       4.06252890       3.77612100      -3.56564500      -2.15272700
Si       7.62209781       2.28204008       3.86999560      -2.42171800      -0.90818300      -0.34781400
Si       3.90956686       2.16642272       4.07783754      -2.21878600       0.02798700      -0.98899500
Si       7.68489239       4.40934779       0.93608911      -1.15195700       0.96355700      -1.75866500
Si       3.94520675       4.39883611       0.97605289      -0.99240200       0.70912300      -2.57463900
Si       1.98299340       1.33543550       0.76192112       4.94714600      -3.80582300      -1.59146800
Si       5.80625580       1.06693671       0.85224772       0.38038200       0.25983900      -0.21889100
16
Lattice="7.651675 0.0 0.0 3.793967 6.68899 0.0 3.688611 2.179209 6.386499" Properties=species:S:1:pos:R:3:forces:R:3 id=mp-149-SC222_1042 energy=-87.81276747 stress="-0.04470516488015901 0.023461202411773456 0.020476625094940346 0.023461202411773456 0.017053931286524986 -0.023236632913424177 0.020476625094940346 -0.023236632913424177 0.007367820655194522" pbc="T T T"
Si       3.84760875       2.29740654       1.60484417       0.28832000      -1.52102600      -0.52429000
Si       5.75765749       3.25375042       4.68693666      -0.42773600      -0.62772700       0.95108800
Si       7.53520336       2.40379404       1.49206499       3.17973000      -2.50303400       0.40335800
Si       9.60308503       3.45883154       4.72009536      -0.68951500      -1.18216200       1.46554600
Si       5.68905914       5.47562397       1.70142081       2.12462000       0.70425500      -1.57297500
Si       7.58077138       6.77544172       4.79835552       0.82162700      -1.52296800       0.12400000
Si       9.43478405       5.66621501       1.71250139       4.40758700      -3.59757600      -1.63275600
Si      11.34413949       6.80224896       4.79101743       4.32995600      -2.86392400      -1.75985700
Si       5.79031909       3.33109822       2.35392303      -1.86929600       0.05262300       1.07123600
Si       7.50840007       4.39949766       5.60458715       1.48951200       0.90129600      -0.33393400
Si       9.62724672       3.32511082       2.41300453      -1.47091000       0.49635800      -0.19294400
Si      11.53977029       4.39113374       5.63427799      -0.47225200       0.98090800      -1.41178500
Si       7.77665429       6.56547291       2.42526022      -5.61403200       3.53193100       1.79743400
Si       9.63186866       7.63585726       5.60417203      -3.75432000       2.29745100       1.81078200
Si      11.46798247       6.48785332       2.27998014      -0.95481600       3.07157200       1.62787500
Si      13.38928570       7.61399969       5.83590615      -1.38847400       1.78202200      -1.82277800
16
Lattice="7.644637 0.0 0.0 -3.784388 6.663817 0.0 -3.769637 -2.172259 6.319288" Properties=species:S:1:pos:R:3:forces:R:3 id=mp-149-SC222_280 energy=-88.86901806 stress="-0.04299325624013001 0.022549505173755684 -0.017226877262894087 0.022549505173755684 -0.002871606001654621 0.009819410541731955 -0.017226877262894087 0.009819410541731955 0.0037895322657800204" pbc="T T T"
Si       0.11126532       4.37157808       1.56722766      -2.84388700       2.45419900      -1.91840400
Si      -3.67084603       4.44186071       1.54509119      -2.00235600       1.50141100       0.06019700
Si      -5.54275144       3.41554935       4.66769785      -1.07611600       0.92043200       0.01072600
Si      -1.71087178       3.43876324       4.59745264       0.12718600      -2.97935100       0.65257200
Si       1.98247978       1.23887105       1.63023096       0.34920100       0.24044700      -1.55650600
Si      -1.77294640       0.96579206       1.56863054      -2.13541200       2.27297900      -1.28039800
Si      -3.58279196      -0.04417895       4.66927135      -5.00246100       2.71763400      -1.61071900
Si       0.04754579       0.12435746       4.60048590       0.89030800      -0.88212900       0.70579900
Si       1.89326831       3.46558351       2.24943271       3.19337700      -1.17565100       1.93661900
Si      -1.89709557       3.46532501       2.33610175       1.90677300      -2.52588100      -0.29789800
Si      -3.68358492       2.35803276       5.43837925       0.98408800      -1.26989900       0.31463900
Si       0.23108792       2.26062030       5.59951478      -0.31578800       0.28613800      -1.95834000
Si       3.85230619       0.03163710       2.27644135       0.72776600      -0.90593400       0.66919800
Si       0.10986818       0.12431035       2.20679016       0.95484800      -1.86873600       1.62132300
Si      -1.92884422      -0.90600020       5.48450374       4.70526100      -2.75043500       1.85141800
Si       2.07745658      -1.27848234       5.46570385      -0.46279000       3.96477700       0.79977500
16
Lattice="7.641962 0.0 0.0 3.819442 6.663711 0.0 3.698758 2.263319 6.346611" Properties=species:S:1:pos:R:3:forces:R:3 id=mp-149-SC222_168 energy=-88.35013119 stress="0.00040969265902297705 -0.0003970036709700565 -0.00171160280608184 -0.0003970036709700565 -0.03046090510023251 0.01882731254993482 -0.00171160280608184 0.01882731254993482 -0.007969564550020925" pbc="T T T"
Si       3.61850910       2.34945377       1.51389520       2.35060700      -2.41557200      -1.16470800
Si       5.64174752       5.51009153       1.70546131       0.10377300       2.07056000      -1.84115400
Si       9.53460184       5.53588835       1.67622247      -2.14873100      -0.22925000      -0.60192900
Si       7.40682034       2.18803348       1.76234598       2.03103300       0.92836500      -1.24690300
Si       7.57307949       6.56657802       4.84397469      -0.02513200       0.77946000      -0.48405300
Si       5.44844111       3.49450428       4.64888621       0.58819500      -1.41850000       0.74706800
Si       9.49947307       3.15501887       4.69974160      -0.05590500       2.06977900       1.50935600
Si      11.45072367       6.41415659       4.59404515       0.03800800       6.53389100       1.00258600
Si       7.55525802       6.72015214       2.47052622      -0.11987300       0.09706300      -0.32780200
Si       5.57393481       3.39294639       2.34936307      -0.79072300      -0.90190800       0.19777800
Si       9.64661676       3.36211701       2.50568010      -3.26257000       0.25890900      -1.02804200
Si      11.24423834       6.65337241       2.45504684       2.09141700       0.25720700      -1.74393100
Si       7.49252408       4.33177883       5.41993598       0.15818200      -0.07108300       0.69337800
Si       9.42110146       7.82708713       5.46261059       0.79943200      -0.11141500       0.84420200
Si      13.34690924       7.80432068       5.64570397      -0.52258800      -2.32065700      -0.10067700
Si      11.28530198       4.63544664       5.51712798      -1.23512500      -5.52685100       3.54483200
16
Lattice="7.539885 0.0 0.0 3.67488 -6.612711 0.0 3.757015 -2.269963 -6.271452" Properties=species:S:1:pos:R:3:forces:R:3 id=mp-149-SC222_531 energy=-89.82868373 stress="-0.0380019775657433 0.008713814581209497 0.0034941341218702173 0.008713814581209497 -0.0265465863424987 0.0011694278743528649 0.0034941341218702173 0.0011694278743528649 -0.009003414363141355" pbc="T T T"
Si       3.67006334      -2.14432858      -1.52658430      -0.48827100       0.01874900      -0.23407500
Si       7.40752667      -2.16978205      -1.61629115       0.21965600      -1.77873800      -0.31954100
Si       9.31910194      -3.29405126      -4.86309711       1.68359700       1.28542800       1.93328100
Si       5.71540472      -3.28145489      -4.78094109      -3.08603800       0.29779300       0.28505000
Si       9.33895927      -5.54076452      -1.77412478       0.28068700       0.31444700       2.53888900
Si       5.46551048      -5.46653588      -1.66887101       0.13507900       0.22599500       0.69959800
Si       7.34960867      -6.54429493      -4.64113161       0.49242500       0.73213600       0.19310200
Si      11.21448215      -6.63168964      -4.62946044      -1.45648400      -0.38455000      -2.24257700
Si       9.36203687      -3.39230888      -2.30191764      -0.44404300       1.94560000      -1.73533400
Si       5.45380939      -3.24192704      -2.43105938       0.89578900      -0.33777800      -0.28243000
Si       7.50285642      -4.36953504      -5.45822655      -0.16770200      -1.07220600      -1.03028100
Si      11.12899260      -4.51631112      -5.61684411       1.34825300       0.69964900       1.27138100
Si       7.45389811      -6.54800769      -2.36087556      -1.60535000      -0.70658500       0.45300100
Si      11.14882781      -6.68799481      -2.41391950       1.03010200       0.58555300       0.53123900
Si      13.13563685      -7.59049144      -5.48259114      -1.47509800      -1.62010800      -1.58905100
Si       9.03064567      -7.71602435      -5.53658834       2.63739900      -0.20538500      -0.47225200
16
Lattice="7.66424 0.0 0.0 3.780306 6.668962 0.0 3.789604 2.20025 6.29184" Properties=species:S:1:pos:R:3:forces:R:3 id=mp-149-SC222_215 energy=-89.07885968 stress="-0.028247834484940705 0.00953452309919014 0.00953484141615556 0.00953452309919014 0.00866475007797093 -0.01279690998721631 0.00953484141615556 -0.01279690998721631 -0.01308998004822216" pbc="T T T"
Si       3.82571116       2.21144077       1.63022833      -1.20798700      -1.03670200       2.78247000
Si       5.72455591       3.42595191       4.81610151      -0.89582600      -1.02875600      -1.00320200
Si       7.54326791       6.66285648       4.75968258       0.64701100      -0.61706500       0.75299400
Si       5.55996524       5.50770917       1.50089326       0.97378600      -0.22510800       1.16446400
Si       9.31224388       3.33743772       4.77960884       1.39268600      -0.22959800      -1.72558300
Si       7.44083324       2.28763338       1.55587136       4.93215800      -3.60383900      -1.88648200
Si       9.48833066       5.52286652       1.64393825      -0.53564000      -0.24073500       0.05139500
Si      11.42739561       6.73834356       4.77906145       0.82530700      -0.56794300       0.59948300
Si       7.63265701       4.33108430       5.81177890      -1.62184700       1.77742800      -3.49861700
Si       5.72735765       3.16925380       2.18538254      -2.62543800       4.04773200       3.57291300
Si       7.52273224       6.66863717       2.44649390      -0.19546300      -0.93183500      -0.78079200
Si       9.52095283       7.74952449       5.52288907      -0.93191900       1.06336800      -0.79868500
Si       9.52188433       3.22356576       2.34656690      -1.27077400       0.82936800       0.30836900
Si      11.24210968       4.42248886       5.38801089       1.34870000       0.55785400       1.08516200
Si      13.41844861       7.91411445       5.56780022      -0.76176300      -1.46179800       0.50242600
Si      11.37731515       6.49900865       2.51019878      -0.07298900       1.66762900      -1.12631600
16
Lattice="7.580543 0.0 0.0 -3.768386 6.637764 0.0 -3.779111 -2.22202 6.25417" Properties=species:S:1:pos:R:3:forces:R:3 id=mp-149-SC222_365 energy=-88.91782633 stress="-0.041610050436706514 -0.012457115988894102 0.011643947213937527 -0.012457115988894102 -0.01625947455592781 0.008456907824079016 0.011643947213937527 0.008456907824079016 -0.01561924551583121" pbc="T T T"
Si       0.14096919      -0.00318227       4.64968770      -3.31575600      -1.51531700       1.43002200
Si       3.66411427       4.44012331       1.65553509       2.09252600      -0.35935900      -0.35861300
Si       1.95345984       1.13045986       1.47007393      -0.59022300       0.22824600       0.72109400
Si       1.83712410       3.27463854       4.67901976      -0.22242400       0.82748000       1.14359600
Si      -1.80701557       0.94329890       1.60087989      -1.50120200       1.14876700      -0.85884100
Si      -1.81555863       3.49205994       4.81157064      -2.44106600      -2.58904600      -0.74848100
Si      -3.72630718       0.14613621       4.76721607      -1.60211300      -1.10157900      -0.53656300
Si      -0.04353665       4.45530673       1.54507394       1.15629000      -1.55961500       1.55270200
Si       3.82565836       2.34997598       0.71039241       0.61691300      -1.61897800       0.86683500
Si      -3.81334844       4.48720567       3.89829921      -0.06130200      -1.43171300       1.45858500
Si       1.71859184       1.10552798       3.90725518       4.66220800       1.87315500      -2.05035700
Si      -1.84338282       5.45762959       1.01505805      -2.87224100       1.77080500      -2.59727200
Si      -1.81094057       0.96312245       3.84640211       0.12467200       2.00543200       1.36562400
Si       1.86969195       5.41246994       0.83068511      -0.38730900       1.20899100      -0.74892200
Si      -0.09607857       2.26033403       0.85787199       1.32196700      -0.74112000      -0.59864000
Si      -0.13515209       4.44341675       3.89949376       3.01905700       1.85385100      -0.04077000
16
Lattice="7.61663 0.0 0.0 -3.757626 6.664648 0.0 -3.800758 -2.20741 6.270799" Properties=species:S:1:pos:R:3:forces:R:3 id=mp-149-SC222_635 energy=-88.00838434 stress="-0.047541325351487744 0.026785336549581984 -0.014571970216581007 0.026785336549581984 -0.011059267605061287 0.01570682013037648 -0.014571970216581007 0.01570682013037648 -0.00677207485063809" pbc="T T T"
Si      -0.00436600       4.44694250       1.39044307       1.48136800       0.68936000       1.54705500
Si      -1.89450059       3.19061361       4.60904354       1.69413500       1.34806200       0.08597400
Si       3.79514013       4.50437771       1.51426627      -0.12068300      -0.16524300       0.28196000
Si      -5.67959306       3.34659611       4.81928461       0.65176200       0.86605300      -1.41539600
Si       5.59627531       1.28070249       1.37116664       0.42354000      -0.47234500       2.49818200
Si       3.78406735      -0.06396825       4.70910668      -3.36961500       1.47060500      -1.32832500
Si       1.95339414       1.18636558       1.60125480      -1.99143400      -1.26891100      -1.56806700
Si       0.13893409      -0.17423512       4.73953259      -8.42375100       6.28282400      -4.15170300
Si      -1.79847396       3.47362112       2.34684653      -1.75811100      -0.56835600      -1.30207100
Si      -3.68893007       2.23535837       5.40211776      -1.95649900      -1.42125400      -0.11553600
Si       1.87799169       3.23838616       2.37956128       0.30968400       2.48289900       0.45868900
Si       0.10190305       2.18330231       5.36534579      -0.83585600      -0.93119500       1.33257900
Si       3.73434591       0.05572820       2.30873888       1.47559000      -0.87564000       0.14431600
Si       1.57355818      -1.19018907       5.42846765       8.99994300      -5.34833200       2.28492000
Si      -0.09222203       0.08400474       2.37799986       0.28101200      -0.08614300      -0.99800400
Si      -2.04029806      -0.98073328       5.35324942       3.13891500      -2.00238400       2.24542700
16
Lattice="7.643731 0.0 0.0 -0.010441 7.666652 0.0 -3.79392 -3.78874 5.509873" Properties=species:S:1:pos:R:3:forces:R:3 id=mp-149-SC222_169 energy=-89.67249579 stress="-0.014435743038399477 -0.0019014882382185866 0.010532540408418872 -0.0019014882382185866 -0.002578423593484507 0.008421424844698372 0.010532540408418872 0.008421424844698372 -0.0023219911910475934" pbc="T T T"
Si       3.61275854       0.03978001       2.71601476       2.42030700      -3.45478200       0.60358300
Si      -1.92441498       1.98857762       5.50618689       0.01817500       0.31471700      -1.42476700
Si      -1.88511455      -1.78399017       5.40244150       1.42632600      -0.61670100      -0.43905100
Si       3.57943242       3.81755347       2.78375865       2.21048000      -0.29510700      -1.17718100
Si       0.07774209      -0.00839418       2.62780720      -0.09826300       2.01498500       2.14443400
Si       1.95131597       1.91030367       5.47950258      -0.30192300       1.02600700      -0.76724600
Si       5.77726525       1.93874417       0.02194031      -0.48868400      -1.27205100       1.03099900
Si      -0.01000380       3.92017383       2.76271644      -1.23385100      -0.05198500      -2.70654000
Si      -1.89095851       0.10692771       4.03902342      -0.59194400       0.23401900      -0.59180500
Si       3.79140421       5.64778158       1.19241366      -0.12552000       0.34033900       2.09102300
Si       3.74879606       1.71878529       1.44418730       0.26545400       3.95649700      -2.18556500
Si      -1.87014923       3.92255727       4.04590525      -1.99111400      -0.29796900       0.60504900
Si       1.96897388      -0.03506445       4.18753103      -1.64949200       0.60073300      -0.17370800
Si      -0.01990344       5.92929564       1.32438613      -0.02849300      -2.60719300      -0.51884500
Si       0.17463469       1.93268063       1.29870462      -1.53410100       0.51627300       0.84812700
Si       1.72086523       3.94461918       4.04604300       1.70264200      -0.40778100       2.66149000
16
Lattice="7.604076 0.0 0.0 -3.729534 6.71874 0.0 -3.797823 -2.164053 6.378912" Properties=species:S:1:pos:R:3:forces:R:3 id=mp-149-SC222_264 energy=-87.59366118 stress="-0.04443400875769414 0.026761581365848875 -0.01775364815010038 0.026761581365848875 0.006709023125448418 0.021087213208198126 -0.01775364815010038 0.021087213208198126 -0.0012082563026249845" pbc="T T T"
Si      -0.04951510       4.67924213       1.56033929       0.85003800      -0.79847000       0.50851400
Si       3.86399758       4.39690913       1.56655235      -1.44455600       1.86845900      -0.41831500
Si      -1.78581615       1.17184576       1.73859798      -5.29650900       1.39362700      -3.41909800
Si       1.96805647       1.24944211       1.53577410      -2.38635400       1.23915700       0.06835700
Si      -1.90376147       3.42548392       4.47716697      -1.09315200       0.85539900       3.19669600
Si      -5.46681149       3.22899221       4.75390330      -5.18322400       3.70214600      -0.68667700
Si       3.78583565       0.08528956       4.63665252      -0.53759000      -0.14471800       1.82401800
Si      -0.14888445       0.14656728       4.81563842       3.48528600       2.03902600      -1.87538500
Si      -1.84312286       3.36035503       2.28908533       0.27267900       0.81136100      -1.22390400
Si       1.87605160       3.46809207       2.49732491       0.26426500      -0.08308000      -1.31583800
Si       3.68252359       0.15556677       2.35522189       1.96804300      -0.41998100       0.10227200
Si      -0.12528135       0.20510068       2.29857077       5.62334600      -4.07614600       2.29459900
Si      -3.87486702       2.31521558       5.61936857       4.64627300      -2.24419900       0.53549000
Si      -0.10587331       2.48602422       5.53314482       1.57081500      -1.11249600       0.29428000
Si       1.82003178      -1.04525582       5.54658518       0.26791500       0.04244700      -0.02632200
Si      -1.82825874      -0.81310490       5.60224119      -3.00727600      -3.07253400       0.14131400
16
Lattice="7.726928 0.0 0.0 -3.804488 6.7466 0.0 -3.84479 -2.219168 6.349497" Properties=species:S:1:pos:R:3:forces:R:3 id=mp-149-SC222_971 energy=-89.11891537 stress="-0.01858712679575258 0.014662634378143587 -0.010003360298689985 0.014662634378143587 0.030698469420581877 0.01642559856282232 -0.010003360298689985 0.01642559856282232 0.0015161561893139316" pbc="T T T"
Si       0.09143713       0.01027738       4.72533376       0.79210500      -0.91590300      -0.06511600
Si       5.65364481       1.17666324       1.65539641       3.20103300      -1.27114500      -1.02258700
Si      -3.72391081       0.23122329       4.66747715       1.26255200      -3.13212000       2.44702500
Si       2.19183903       1.13521488       1.76945243      -1.53683400      -0.04379400      -2.77181000
Si      -1.98359151       3.34960602       4.74024238       2.13242300      -0.68385800       0.90778000
Si      -3.67899619       4.62966160       1.55507436      -0.15184500      -1.70017200       0.26920500
Si      -5.72372830       3.51467924       4.83296409      -0.03087800      -1.16702500      -1.78969400
Si       0.05267442       4.58264482       1.55032494       1.11396600      -1.34598100       1.12610500