2
Lattice="3.665836 0.0 0.0 -1.793937 3.285284 0.0 -1.813346 -1.114694 3.150703" Properties=species:S:1:pos:R:3:forces:R:3 id=mp-149-SC111_1189 energy=-10.68000628 stress="-0.08780829040543195 0.06565720572521788 -0.08247301719708129 0.06565720572521788 0.008169099355266288 0.05087497154920412 -0.08247301719708129 0.05087497154920412 -0.09969812187138365" pbc="T T T"
Si       1.73412737       1.16752137       0.49373091       3.38310300      -2.06766600      -1.50989900
Si      -1.67557437       1.00306863       2.65697209      -3.38310300       2.06766600       1.50989900
2
Lattice="3.667023 0.0 0.0 -1.75602 3.293002 0.0 -1.774582 -1.147161 3.122035" Properties=species:S:1:pos:R:3:forces:R:3 id=mp-149-SC111_929 energy=-9.61120435 stress="0.0186605831166551 -0.013160490376817264 0.000514749740629844 -0.013160490376817264 -0.326836831346678 -0.14934673674149773 0.000514749740629844 -0.14934673674149773 -0.021474798441897223" pbc="T T T"
Si       1.87093587       0.18750584       1.21259839      -0.32099500      -9.92188300      -3.64040400
Si      -1.73451487       1.95833516       1.90943661       0.32099500       9.92188300       3.64040400
2
Lattice="3.80054 0.0 0.0 1.844854 3.379211 0.0 1.888923 1.123919 3.168419" Properties=species:S:1:pos:R:3:forces:R:3 id=mp-149-SC111_889 energy=-11.27927797 stress="-0.05571221601987317 -0.01888950294686512 -0.009507846889186114 -0.01888950294686512 0.020050804376336086 -0.01699416259513553 -0.009507846889186114 -0.01699416259513553 0.03299694260524314" pbc="T T T"
Si       0.92570074       0.50662069       0.34570620       0.84533700       1.70726200       1.31928700
Si       6.60861626       3.99650931       2.82271280      -0.84533700      -1.70726200      -1.31928700
2
Lattice="3.810479 0.0 0.0 1.795547 3.369697 0.0 1.891059 1.152226 3.135455" Properties=species:S:1:pos:R:3:forces:R:3 id=mp-149-SC111_951 energy=-11.17074159 stress="-0.027196396099103536 0.028576069208361775 0.03453568057457452 0.028576069208361775 0.023879520836408402 -0.018408613393243192 0.03453568057457452 -0.018408613393243192 -0.013732118990111283" pbc="T T T"
Si       2.71291851       1.74135104       1.15535873       2.57361100      -1.46153100       0.08749000
Si       4.78416649       2.78057196       1.98009627      -2.57361100       1.46153100      -0.08749000
2
Lattice="3.684262 0.0 0.0 1.829955 3.255319 0.0 1.817922 1.115851 3.118937" Properties=species:S:1:pos:R:3:forces:R:3 id=mp-149-SC111_789 energy=-10.99362229 stress="-0.039386263150245564 0.025147558313441093 0.036202338273440875 0.025147558313441093 0.0035767467366604076 -0.017346913966403074 0.036202338273440875 -0.017346913966403074 -0.1337128236792207" pbc="T T T"
Si       2.68730762       1.66678132       1.06045106       1.20866300      -0.71086900       3.36234400
Si       4.64483138       2.70438868       2.05848594      -1.20866300       0.71086900      -3.36234400
2
Lattice="3.807039 0.0 0.0 1.823811 3.361836 0.0 1.901557 1.028516 3.182228" Properties=species:S:1:pos:R:3:forces:R:3 id=mp-149-SC111_1088 energy=-10.95396001 stress="0.04343093582607344 -0.002937335334259298 0.008769869574669055 -0.002937335334259298 0.027180655013088056 0.02393432752804278 0.008769869574669055 0.02393432752804278 -0.07764449211466112" pbc="T T T"
Si       2.79104911       1.56737972       1.06653326       0.22228300       0.93886400       3.75586800
Si       4.74135789       2.82297228       2.11569474      -0.22228300      -0.93886400      -3.75586800
2
Lattice="-3.801694 0.0 0.0 1.839769 -3.33858 0.0 1.893091 1.198906 3.193838" Properties=species:S:1:pos:R:3:forces:R:3 id=mp-149-SC111_75 energy=-10.87949058 stress="-0.008888252278259684 -0.014247592745799727 -0.03270934634774069 -0.014247592745799727 0.04642101815395558 -0.02946721315682801 -0.03270934634774069 -0.02946721315682801 -0.0581765635510639" pbc="T T T"
Si       0.97173253      -1.51692594       1.08092573      -1.47894500      -1.27051900       2.53708400
Si      -1.04056653      -0.62274806       2.11291227       1.47894500       1.27051900      -2.53708400
2
Lattice="3.769112 0.0 0.0 -1.872453 3.30359 0.0 -1.824981 -1.079259 3.199868" Properties=species:S:1:pos:R:3:forces:R:3 id=mp-149-SC111_387 energy=-11.30372759 stress="-0.024500039190685465 0.03560922638573557 -0.023009523120860655 0.03560922638573557 -0.008473866004374043 0.011170191705246482 -0.023009523120860655 0.011170191705246482 0.010690743940232636" pbc="T T T"
Si       1.81313356       1.10011368       0.42236338       2.06370600      -0.40057500       0.11791200
Si      -1.74145556       1.12421732       2.77750462      -2.06370600       0.40057500      -0.11791200
2
Lattice="3.827715 0.0 0.0 1.836063 3.372501 0.0 1.839875 1.143335 3.178147" Properties=species:S:1:pos:R:3:forces:R:3 id=mp-149-SC111_92 energy=-11.12806369 stress="0.03604751763957334 -0.01213399930295625 -0.009390675038365909 -0.01213399930295625 -0.041933616511301425 0.04033391772233755 -0.009390675038365909 0.04033391772233755 0.01136556342390488" pbc="T T T"
Si       0.91841596       0.67647121       0.40471477       0.36468000      -3.19762100       0.45814200
Si       6.58523704       3.83936479       2.77343223      -0.36468000       3.19762100      -0.45814200
2
Lattice="3.833327 0.0 0.0 1.837753 3.387551 0.0 1.91247 0.983556 3.220274" Properties=species:S:1:pos:R:3:forces:R:3 id=mp-149-SC111_360 energy=-11.02708661 stress="-0.014374981947059006 -0.05017427476869597 -0.03902746999814417 -0.05017427476869597 0.029706244231821964 -0.0308125829319304 -0.03902746999814417 -0.0308125829319304 0.006929030080626677" pbc="T T T"
Si       2.95935112       1.65296850       1.15883170      -2.94886300      -1.34666800       0.27489900
Si       4.62419888       2.71813850       2.06144230       2.94886300       1.34666800      -0.27489900
2
Lattice="3.677933 0.0 0.0 1.751507 3.288125 0.0 1.7974 1.124569 3.162493" Properties=species:S:1:pos:R:3:forces:R:3 id=mp-149-SC111_65 energy=-10.52605025 stress="-0.011090094418634025 -0.014589727310044143 -0.009832361673168163 -0.014589727310044143 -0.20638681510337517 0.0756766816004709 -0.009832361673168163 0.0756766816004709 0.019938207551705153" pbc="T T T"
Si       2.72974321       1.51695465       1.25455465      -0.56358400       5.91781500      -2.63342100
Si       4.49709679       2.89573935       1.90793835       0.56358400      -5.91781500       2.63342100
2
Lattice="3.793713 0.0 0.0 1.896077 3.350768 0.0 1.850146 1.122337 3.195867" Properties=species:S:1:pos:R:3:forces:R:3 id=mp-149-SC111_70 energy=-11.11279675 stress="0.03063064918242003 -0.018946594030839575 -0.01279616724763033 -0.018946594030839575 -0.026165804353746817 0.037852830463671196 -0.01279616724763033 0.037852830463671196 -0.006602280836377563" pbc="T T T"
Si       0.87269677       0.66613712       0.44961055       0.81395800      -2.37086600      -0.45642700
Si       6.66723923       3.80696788       2.74625645      -0.81395800       2.37086600       0.45642700
2
Lattice="3.863276 0.0 0.0 -1.923901 3.356521 0.0 -1.852122 -1.167398 3.223269" Properties=species:S:1:pos:R:3:forces:R:3 id=mp-149-SC111_19 energy=-10.97328668 stress="-0.053744611475484094 -0.026760457894206217 0.03155168995959924 -0.026760457894206217 0.03694060269737772 0.019221638613489873 0.03155168995959924 0.019221638613489873 0.03667966392535192" pbc="T T T"
Si       1.98879392       1.24917484       0.39282946      -2.05378900      -2.58796000       1.13051600
Si      -1.90154092       0.93994816       2.83043954       2.05378900       2.58796000      -1.13051600
2
Lattice="3.753085 0.0 0.0 1.788028 3.335094 0.0 1.768026 1.06065 3.226038" Properties=species:S:1:pos:R:3:forces:R:3 id=mp-149-SC111_401 energy=-10.86571132 stress="-0.030819623354224397 -0.07422365203445615 -0.04141849228012403 -0.07422365203445615 -0.05855723943416064 -0.00398173329780247 -0.04141849228012403 -0.00398173329780247 0.030673915323680648" pbc="T T T"
Si       0.78385386       0.62467273       0.38600512       3.04677700      -0.61819000       1.66794100
Si       6.52528514       3.77107127       2.84003288      -3.04677700       0.61819000      -1.66794100
2
Lattice="3.811213 0.0 0.0 1.898133 -3.339955 0.0 1.904807 -1.159965 -3.185709" Properties=species:S:1:pos:R:3:forces:R:3 id=mp-149-SC111_308 energy=-11.21266208 stress="-0.009228370835056439 -0.010228753676243882 -0.0024316232988437327 -0.010228753676243882 -0.05194838628867353 0.016227324542420388 -0.0024316232988437327 0.016227324542420388 0.04871722567080415" pbc="T T T"
Si       3.79150150      -2.22719598      -2.88070922       0.41420400      -1.42653400       1.82042700
Si       3.82265150      -2.27272402      -0.30499978      -0.41420400       1.42653400      -1.82042700
2
Lattice="3.745993 0.0 0.0 -1.783017 3.321589 0.0 -1.801813 -1.11441 3.175883" Properties=species:S:1:pos:R:3:forces:R:3 id=mp-149-SC111_293 energy=-11.06922244 stress="0.030444527380286187 -0.0013444772392973868 0.006964924999609631 -0.0013444772392973868 -0.03547113923783452 -0.04831428632465537 0.006964924999609631 -0.04831428632465537 -0.04150782075873367" pbc="T T T"
Si       1.89059818       0.11040038       1.11448404       0.15487400      -2.60168300       1.38247500
Si      -1.72943518       2.09677862       2.06139896      -0.15487400       2.60168300      -1.38247500
2
Lattice="3.68388 0.0 0.0 -1.828499 -3.270971 0.0 -1.827423 1.002031 -3.120559" Properties=species:S:1:pos:R:3:forces:R:3 id=mp-149-SC111_236 energy=-11.38979621 stress="-0.05493236442063055 -0.013192222209213254 0.008482136003965838 -0.013192222209213254 -0.03016709229964068 0.010899241552582766 0.008482136003965838 0.010899241552582766 -0.042739170645124426" pbc="T T T"
Si       0.04301398      -1.18381742      -2.69821630      -0.60102800      -0.01418100      -0.59219200
Si      -0.01505598      -1.08512258      -0.42234270       0.60102800       0.01418100       0.59219200
2
Lattice="3.78785 0.0 0.0 -0.016156 3.815534 0.0 -1.822095 -1.900067 2.774112" Properties=species:S:1:pos:R:3:forces:R:3 id=mp-149-SC111_836 energy=-11.0382957 stress="-0.08240452287593386 0.005681951591238699 -0.014574142261756812 0.005681951591238699 0.03439819885305869 0.021594416964294778 -0.014574142261756812 0.021594416964294778 0.004709012665677764" pbc="T T T"
Si      -0.85722515       0.07320922       2.19412840      -1.29448600      -0.63972500      -2.69150800
Si       2.80682415       1.84225778       0.57998360       1.29448600       0.63972500       2.69150800
2
Lattice="3.826489 0.0 0.0 1.833088 -3.370201 0.0 1.840359 -1.18307 -3.180509" Properties=species:S:1:pos:R:3:forces:R:3 id=mp-149-SC111_936 energy=-10.86852683 stress="0.004780515394223883 -0.05383145583346163 -0.02065214881457843 -0.05383145583346163 -0.034119927410190314 0.006056648108592848 -0.02065214881457843 0.006056648108592848 0.031025543223305533" pbc="T T T"
Si       3.56228097      -2.22809288      -2.80152909       2.75070900      -0.60480800       1.36722400
Si       3.93765503      -2.32517812      -0.37897991      -2.75070900       0.60480800      -1.36722400
2
Lattice="3.680437 0.0 0.0 1.766573 3.352522 0.0 1.764996 1.12552 3.204056" Properties=species:S:1:pos:R:3:forces:R:3 id=mp-149-SC111_492 energy=-10.87207513 stress="-0.05372416429158769 -0.053963544891092695 -0.05740282238925553 -0.053963544891092695 0.025949648409699228 -0.03303993412010222 -0.05740282238925553 -0.03303993412010222 -0.05528303112785004" pbc="T T T"
Si       2.79953158       1.72772996       1.10148396      -2.69341700      -1.64177600       1.72325300
Si       4.41247442       2.75031204       2.10257204       2.69341700       1.64177600      -1.72325300
2
Lattice="3.821653 0.0 0.0 1.844267 3.393899 0.0 1.842535 1.113812 3.209992" Properties=species:S:1:pos:R:3:forces:R:3 id=mp-149-SC111_746 energy=-10.89254805 stress="-0.047006715128819335 -0.06883872762100911 -0.0539405636544912 -0.06883872762100911 0.014351863397256732 -0.030877850392859757 -0.0539405636544912 -0.030877850392859757 0.02051462964400785" pbc="T T T"
Si       0.81724079       0.52939973       0.40117196       3.94779500       2.03090300       1.08092200
Si       6.69121421       3.97831127       2.80882004      -3.94779500      -2.03090300      -1.08092200
2
Lattice="3.74615 0.0 0.0 1.824461 3.32278 0.0 1.849532 1.086181 3.143895" Properties=species:S:1:pos:R:3:forces:R:3 id=mp-149-SC111_1055 energy=-10.51794408 stress="-0.10705028258018132 -0.11062370259247761 -0.0784523056747877 -0.11062370259247761 -0.0424660734133214 -0.047725942949922245 -0.0784523056747877 -0.047725942949922245 -0.01116376919235595" pbc="T T T"
Si       2.94265283       1.67141077       1.19051444      -5.51669600      -2.76263300      -1.96957600
Si       4.47749017       2.73755023       1.95338056       5.51669600       2.76263300       1.96957600
2
Lattice="3.703981 0.0 0.0 1.779084 -3.299791 0.0 1.824532 -1.201552 -3.187886" Properties=species:S:1:pos:R:3:forces:R:3 id=mp-149-SC111_916 energy=-11.38867823 stress="-0.03201165173312208 0.026478266783606784 0.015419061593636756 0.026478266783606784 -0.01715811455685423 0.009351977681785433 0.015419061593636756 0.009351977681785433 -0.0064643871752594236" pbc="T T T"
Si       2.68248706      -2.82204522      -2.03079496       1.00398900       0.08044400       0.51338300
Si       4.62510994      -1.67929778      -1.15709104      -1.00398900      -0.08044400      -0.51338300
2
Lattice="3.827624 0.0 0.0 1.843642 3.369652 0.0 1.875947 1.050527 3.227617" Properties=species:S:1:pos:R:3:forces:R:3 id=mp-149-SC111_292 energy=-10.58973949 stress="0.047490288531365395 -0.01712688828669744 -0.004441089644940099 -0.01712688828669744 -0.08194309434776643 0.06440094597590573 -0.004441089644940099 0.06440094597590573 0.01721111745235123" pbc="T T T"
Si       2.89717353       1.47619394       1.18958343      -0.41514700       5.03521500      -1.23003100
Si       4.65003947       2.94398506       2.03803357       0.41514700      -5.03521500       1.23003100
2
Lattice="3.716267 0.0 0.0 -1.821919 3.251395 0.0 -1.832877 -1.082083 3.188556" Properties=species:S:1:pos:R:3:forces:R:3 id=mp-149-SC111_843 energy=-10.96323103 stress="-0.15445752783262684 0.005249951778599815 0.0005014490846825868 0.005249951778599815 -0.034116869070718626 0.025527591321097876 0.0005014490846825868 0.025527591321097876 0.0375656586287893" pbc="T T T"
Si       1.87395169       1.15825129       0.30888499       0.07790600      -2.51264500       2.31187000
Si      -1.81248069       1.01106071       2.87967101      -0.07790600       2.51264500      -2.31187000
2
Lattice="3.832444 0.0 0.0 -1.914575 3.343876 0.0 -1.885572 -1.122305 3.187767" Properties=species:S:1:pos:R:3:forces:R:3 id=mp-149-SC111_11 energy=-11.29534929 stress="0.014846346957754837 -0.009356084594790263 0.006198823444971342 -0.009356084594790263 -0.0414214257894132 -0.019903298791164085 0.006198823444971342 -0.019903298791164085 0.03689128229226499" pbc="T T T"
Si       1.93740299       1.04896048       0.35627440      -0.37113800       2.06511700       1.18502200
Si      -1.90510599       1.17261052       2.83149260       0.37113800      -2.06511700      -1.18502200
2
Lattice="3.760041 0.0 0.0 1.841088 3.341083 0.0 1.80909 1.11427 3.177159" Properties=species:S:1:pos:R:3:forces:R:3 id=mp-149-SC111_1197 energy=-10.08355293 stress="0.034127847885271054 -0.036680475321538286 0.0023577550383389045 -0.036680475321538286 -0.11217250187451992 0.10408736954152416 0.0023577550383389045 0.10408736954152416 -0.054597001893787724" pbc="T T T"
Si       2.94329900       1.43707917       1.09577037       0.31589000       4.93910500      -0.60703900
Si       4.46692000       3.01827383       2.08138863      -0.31589000      -4.93910500       0.60703900
2
Lattice="-3.702829 0.0 0.0 1.738334 -3.315616 0.0 1.845238 1.157808 3.158615" Properties=species:S:1:pos:R:3:forces:R:3 id=mp-149-SC111_676 energy=-11.06441112 stress="-0.010738965839739208 0.048191865364660295 0.03056033234060783 0.048191865364660295 -0.040557188986788645 0.019666240033053915 0.03056033234060783 0.019666240033053915 -0.04020943706433092" pbc="T T T"
Si       0.74665882      -1.71313967       1.12270443       1.67139300       1.11807900       0.69621200
Si      -0.86591582      -0.44466833       2.03591057      -1.67139300      -1.11807900      -0.69621200
2
Lattice="3.734402 0.0 0.0 1.755435 3.351538 0.0 1.781826 1.18238 3.145272" Properties=species:S:1:pos:R:3:forces:R:3 id=mp-149-SC111_1180 energy=-11.23991644 stress="-0.07204155178744698 0.0008350515059519212 0.008684685458119002 0.0008350515059519212 0.022171438241473558 -0.019838930107548853 0.008684685458119002 -0.019838930107548853 -0.005334736438565813" pbc="T T T"
Si       0.95432531       0.48426780       0.40196576      -1.08286500       1.93109000       0.34516200
Si       6.31733769       4.04965020       2.74330624       1.08286500      -1.93109000      -0.34516200
2
Lattice="3.765921 0.0 0.0 1.720658 3.448362 0.0 1.827969 1.142842 3.19627" Properties=species:S:1:pos:R:3:forces:R:3 id=mp-149-SC111_569 energy=-11.27420485 stress="0.02575530029853747 -0.013289764513832557 -0.002007706240522868 -0.013289764513832557 0.03533177258056267 0.015199379196933045 -0.002007706240522868 0.015199379196933045 -0.003940870137555312" pbc="T T T"
Si       0.92799950       0.64984775       0.45929121      -0.00092700      -1.21618600      -1.38606800
Si       6.38654850       3.94135625       2.73697879       0.00092700       1.21618600       1.38606800
2
Lattice="3.768393 0.0 0.0 1.874825 3.287218 0.0 1.717727 1.038813 3.212235" Properties=species:S:1:pos:R:3:forces:R:3 id=mp-149-SC111_311 energy=-10.41646326 stress="-0.016842737342232475 0.024900494416202134 0.05651235252377489 0.024900494416202134 0.04013544397364358 -0.04567672443220313 0.05651235252377489 -0.04567672443220313 -0.10871826972049148" pbc="T T T"
Si       2.66402156       1.77297833       1.03585584       1.74162900      -1.08620400       3.65072000
Si       4.69692344       2.55305267       2.17637916      -1.74162900       1.08620400      -3.65072000
2
Lattice="3.766147 0.0 0.0 -1.814303 3.326489 0.0 -1.882107 -1.077596 3.119481" Properties=species:S:1:pos:R:3:forces:R:3 id=mp-149-SC111_456 energy=-11.39849379 stress="-0.04587518569787884 0.01191026616682984 -0.0023336628131129947 0.01191026616682984 -0.02566330669553108 0.0072877608176368175 -0.0023336628131129947 0.0072877608176368175 0.015605907410829196" pbc="T T T"
Si       1.90574233       1.10646229       0.33832331       0.30477400      -0.11326300       1.22614000
Si      -1.83600533       1.14243071       2.78115769      -0.30477400       0.11326300      -1.22614000
2
Lattice="3.790889 0.0 0.0 -1.843068 -3.338142 0.0 -1.887071 1.020256 -3.195121" Properties=species:S:1:pos:R:3:forces:R:3 id=mp-149-SC111_599 energy=-11.22821564 stress="-0.07390716383120999 -0.015446455577190259 0.005124197852731519 -0.015446455577190259 0.009783134890692321 0.027685649274954146 0.005124197852731519 0.027685649274954146 0.03920662627609352" pbc="T T T"
Si       0.05074245      -1.13714245      -2.85241552      -0.60142800      -1.86487500       1.58037000
Si       0.01000755      -1.18074355      -0.34270548       0.60142800       1.86487500      -1.58037000
2
Lattice="3.792895 0.0 0.0 1.79963 3.381681 0.0 1.827541 1.187765 3.156327" Properties=species:S:1:pos:R:3:forces:R:3 id=mp-149-SC111_198 energy=-11.26296458 stress="-0.054064039429528546 -0.004200966305849119 -0.003250347016922343 -0.004200966305849119 0.010349701640085248 -0.007216014670234789 -0.003250347016922343 -0.007216014670234789 0.03847919087049008" pbc="T T T"
Si       2.75599173       1.75862799       1.25861695       0.48494200      -1.43156300      -1.56613600
Si       4.66407427       2.81081801       1.89771005      -0.48494200       1.43156300       1.56613600
2
Lattice="-3.796022 0.0 0.0 1.885274 -3.34597 0.0 1.877174 1.191984 3.190356" Properties=species:S:1:pos:R:3:forces:R:3 id=mp-149-SC111_224 energy=-11.27327673 stress="-0.05135275907279049 0.01609265774152033 0.01246280200370778 0.01609265774152033 0.024771769531989916 -0.013054752970715674 0.01246280200370778 -0.013054752970715674 0.02377651721130395" pbc="T T T"
Si      -1.87600070      -1.18842089       0.38969241      -1.04897200       1.89349000       0.75258900
Si       1.84242670      -0.96556511       2.80066359       1.04897200      -1.89349000      -0.75258900
2
Lattice="-3.79845 0.0 0.0 1.852599 -3.348622 0.0 1.889844 1.153535 3.163981" Properties=species:S:1:pos:R:3:forces:R:3 id=mp-149-SC111_806 energy=-11.35549351 stress="-0.04738370228002269 -0.0036609322117503217 -0.007130818070666483 -0.0036609322117503217 0.009976983681124003 -0.009528905740976845 -0.007130818070666483 -0.009528905740976845 0.027362170581486992" pbc="T T T"
Si      -1.93665496      -1.15907650       0.35601747       0.58208900       1.38281200       1.10595900
Si       1.88064796      -1.03601050       2.80796353      -0.58208900      -1.38281200      -1.10595900
2
Lattice="3.798739 0.0 0.0 1.814921 -3.338376 0.0 1.876396 -1.179145 -3.132903" Properties=species:S:1:pos:R:3:forces:R:3 id=mp-149-SC111_221 energy=-11.33154725 stress="0.006907259696795596 -0.00792140506560561 -0.003987419312616149 -0.00792140506560561 -0.04484605446565757 0.02661156669400827 -0.003987419312616149 0.02661156669400827 0.010323368713083148" pbc="T T T"
Si       2.82109021      -2.88248412      -1.93404754      -0.62058500       1.83680100      -0.78835400
Si       4.66896579      -1.63503688      -1.19885546       0.62058500      -1.83680100       0.78835400
2
Lattice="3.719967 0.0 0.0 1.791775 3.274474 0.0 1.726675 1.026018 3.252432" Properties=species:S:1:pos:R:3:forces:R:3 id=mp-149-SC111_1040 energy=-10.72282075 stress="-0.0225718872254811 -0.05808668581965118 -0.030039946517237313 -0.05808668581965118 -0.13560382618210778 0.032547610121761675 -0.030039946517237313 0.032547610121761675 0.04022005387135406" pbc="T T T"
Si       2.79371855       1.50115101       1.27374669      -1.80055100       3.37947700      -2.34249900
Si       4.44469845       2.79934099       1.97868531       1.80055100      -3.37947700       2.34249900
2
Lattice="-3.753168 0.0 0.0 -0.034645 3.75304 0.0 1.862488 -1.873181 -2.786369" Properties=species:S:1:pos:R:3:forces:R:3 id=mp-149-SC111_907 energy=-10.59084689 stress="-0.11051900127689096 0.005790522642483438 0.12239688649437569 0.005790522642483438 0.013175988043976832 -0.014731565604929843 0.12239688649437569 -0.014731565604929843 -0.04191547868578161" pbc="T T T"
Si      -2.97317735       1.84690359      -0.62853240       5.19236700       0.37762000      -3.51121200
Si       1.04785235       0.03295541      -2.15783660      -5.19236700      -0.37762000       3.51121200
2
Lattice="3.868019 0.0 0.0 1.850848 -3.408927 0.0 1.92223 -1.185384 -3.182379" Properties=species:S:1:pos:R:3:forces:R:3 id=mp-149-SC111_1072 energy=-11.30344844 stress="0.027104283907423747 0.013446182974036318 0.0042791848982146885 0.013446182974036318 0.048299369117844514 -0.00234984704627641 0.0042791848982146885 -0.00234984704627641 -0.019786838472384233" pbc="T T T"
Si       3.83903310      -2.33630641      -2.71435289      -0.37223300       0.40396000      -2.04591600
Si       3.80206390      -2.25800459      -0.46802611       0.37223300      -0.40396000       2.04591600
2
Lattice="3.813369 0.0 0.0 -1.902864 -3.313066 0.0 -1.866717 1.030821 -3.211826" Properties=species:S:1:pos:R:3:forces:R:3 id=mp-149-SC111_1006 energy=-10.66462742 stress="0.04206986865551946 0.006878118090686847 -0.013187547318877965 0.006878118090686847 0.030837717489180336 -0.016485429669303036 -0.013187547318877965 -0.016485429669303036 -0.1179254631150838" pbc="T T T"
Si      -0.01077947      -1.20897969      -2.64313366       0.41816600       0.16556900      -5.37072400
Si       0.05456747      -1.07326531      -0.56869234      -0.41816600      -0.16556900       5.37072400
2
Lattice="3.774962 0.0 0.0 1.880727 -3.374779 0.0 1.882185 -1.168875 -3.267685" Properties=species:S:1:pos:R:3:forces:R:3 id=mp-149-SC111_247 energy=-11.31151131 stress="-0.03076167094199057 -0.021181822003528264 -0.01760279711603691 -0.021181822003528264 0.023969854197987306 -0.009918419600995841 -0.01760279711603691 -0.009918419600995841 0.0482973406273786" pbc="T T T"
Si       2.87366430      -2.80278520      -2.03947985      -1.54694800      -1.17001700      -0.60187300
Si       4.66420970      -1.74086880      -1.22820515       1.54694800       1.17001700       0.60187300
2
Lattice="3.718172 0.0 0.0 -0.121291 3.731801 0.0 -1.816412 -1.827389 2.779672" Properties=species:S:1:pos:R:3:forces:R:3 id=mp-149-SC111_403 energy=-11.31104041 stress="-0.018491051245777858 -0.008106952648899868 0.018232421832128632 -0.008106952648899868 -0.05760007904366994 0.03664873724763317 0.018232421832128632 0.03664873724763317 -0.008575508980489052" pbc="T T T"
Si      -0.98614692       0.06426862       2.04933820       0.89018000      -1.41621900       0.99981400
Si       2.76661592       1.84014338       0.73033380      -0.89018000       1.41621900      -0.99981400
2
Lattice="3.742983 0.0 0.0 1.762121 3.364001 0.0 1.850294 1.011152 3.213074" Properties=species:S:1:pos:R:3:forces:R:3 id=mp-149-SC111_118 energy=-11.34583646 stress="-0.005649945132441169 0.008966520802698259 0.01022392274818045 0.008966520802698259 -0.00461726248152728 -0.0017512051814855694 0.01022392274818045 -0.0017512051814855694 0.030885259064192185" pbc="T T T"
Si       2.70322649       1.57887142       1.20302953       0.94613200       1.00029700      -0.44068300
Si       4.65217151       2.79628158       2.01004447      -0.94613200      -1.00029700       0.44068300
2
Lattice="3.784551 0.0 0.0 1.704514 3.408073 0.0 1.884997 1.115919 3.157861" Properties=species:S:1:pos:R:3:forces:R:3 id=mp-149-SC111_784 energy=-11.32923409 stress="-0.043153937651066746 -0.019566400853076288 0.0011572569315573926 -0.019566400853076288 0.019762939733941227 -0.016340957457566217 0.0011572569315573926 -0.016340957457566217 0.03451000924753976" pbc="T T T"
Si       0.93873919       0.53720823       0.33965321      -0.04362400       1.14629500       1.21295600
Si       6.43532281       3.98678377       2.81820779       0.04362400      -1.14629500      -1.21295600
2
Lattice="3.705767 0.0 0.0 1.815822 -3.279951 0.0 1.849812 -1.120045 -3.143306" Properties=species:S:1:pos:R:3:forces:R:3 id=mp-149-SC111_1200 energy=-10.45133792 stress="-0.19945872124911737 0.0768382576563434 0.03305247331193613 0.0768382576563434 -0.06463374178328293 -0.02415590734352076 0.03305247331193613 -0.02415590734352076 0.038053638536778234" pbc="T T T"
Si       2.69386095      -2.68883769      -1.80131237       3.65244500      -2.96022100      -2.70173500
Si       4.67754005      -1.71115831      -1.34199363      -3.65244500       2.96022100       2.70173500
2
Lattice="3.799154 0.0 0.0 1.850652 3.326217 0.0 1.78727 1.120202 3.208965" Properties=species:S:1:pos:R:3:forces:R:3 id=mp-149-SC111_41 energy=-11.27924514 stress="-0.005318533480875019 -0.03251583459880181 -0.024287309835147985 -0.03251583459880181 -0.039244961625144695 0.012775021014711839 -0.024287309835147985 0.012775021014711839 0.03569891063036538" pbc="T T T"
Si       2.83614328       1.61809541       1.23238375      -1.37007300       1.25201000      -1.13850300
Si       4.60093272       2.82832359       1.97658125       1.37007300      -1.25201000       1.13850300
2
Lattice="3.70257 0.0 0.0 1.835302 3.286204 0.0 1.798386 1.049202 3.138591" Properties=species:S:1:pos:R:3:forces:R:3 id=mp-149-SC111_462 energy=-10.78351223 stress="-0.18736622798184824 -0.045433012225364756 -0.03868173408313411 -0.045433012225364756 -0.010734141153184901 -0.043560777940419196 -0.03868173408313411 -0.043560777940419196 0.008905397703828486" pbc="T T T"
Si       0.87773013       0.43329809       0.33859434       2.59794800       3.33208200       2.28444000
Si       6.45852787       3.90210791       2.79999666      -2.59794800      -3.33208200      -2.28444000
2
Lattice="3.855252 0.0 0.0 1.925697 3.341014 0.0 1.844415 1.073024 3.227171" Properties=species:S:1:pos:R:3:forces:R:3 id=mp-149-SC111_817 energy=-11.1631547 stress="-0.0260890213084802 0.03131409443170424 0.009722898086118422 0.03131409443170424 -0.003935951828364116 -0.013103455466424944 0.009722898086118422 -0.013103455466424944 0.053093185168015665" pbc="T T T"
Si       1.02367866       0.53622994       0.32648966      -2.13129800       0.79682700       1.66025000
Si       6.60168534       3.87780806       2.90068134       2.13129800      -0.79682700      -1.66025000
2
Lattice="3.741702 0.0 0.0 1.823703 -3.330155 0.0 1.836263 -1.162399 -3.175826" Properties=species:S:1:pos:R:3:forces:R:3 id=mp-149-SC111_385 energy=-11.27869188 stress="-0.045737048617904785 -0.026308809810839055 -0.027533581146611124 -0.026308809810839055 0.011476812082564625 -0.014766748991872447 -0.027533581146611124 -0.014766748991872447 -0.003489871171137239" pbc="T T T"
Si       3.62098467      -2.30544149      -2.75256779       2.02060900       1.25895000      -0.05920800
Si       3.78068333      -2.18711251      -0.42325821      -2.02060900      -1.25895000       0.05920800
2
Lattice="3.791943 0.0 0.0 1.84906 3.370716 0.0 1.849195 1.116175 3.241357" Properties=species:S:1:pos:R:3:forces:R:3 id=mp-149-SC111_852 energy=-10.83522544 stress="0.01913238503298974 -0.006894040180466974 -0.001556445130721508 -0.006894040180466974 0.055220953078084015 -0.013043349733542684 -0.001556445130721508 -0.013043349733542684 -0.07040524030595068" pbc="T T T"
Si       2.81283055       1.73340855       1.06303544      -0.22671300      -0.49545500       4.41101600
Si       4.67736745       2.75348245       2.17832156       0.22671300       0.49545500      -4.41101600
2