21
Lattice="10.0 0.0 0.0 0.0 10.0 0.0 0.0 0.0 10.0" Properties=species:S:1:pos:R:3:forces:R:3 id=SCAN_0 energy=-136.06358928 stress="-0.0010081285540126637 -0.0005261529778028328 0.0021664590251397084 -0.0005261529778028328 0.00020468405027421557 0.004777113771750277 0.0021664590251397084 0.004777113771750277 -0.003563708224096438" pbc="T T T"
C        1.50840490      -1.53990372      -0.86209562       1.76694300       2.30202000       0.37062000
C        0.68112490       1.00558528      -1.71404162       1.25192800      -2.12981400      -0.17663500
C        2.37639390      -0.74040572      -1.60925462       0.58809800      -0.63936800      -0.47712200
C        1.95213690       0.46497528      -2.08248362      -2.67039300       0.98579300       0.26663000
C       -2.28497610       2.68695528       0.84970438      -2.61592000      -1.40389000      -0.10050200
C        0.37041490      -0.95590872      -0.30338162      -0.43141700      -0.91979300      -0.87492200
C       -0.09244510       0.28979228      -0.82478362       0.30985700      -0.39567700       1.61711300
O       -1.40431110      -1.34651972       1.22993138       0.83962600      -1.40549400      -0.65800200
O       -0.22859710       1.74588128       1.60566238       0.33325400       0.09663400       0.08134000
O        0.53921190      -2.59421772       1.41452738      -0.71676600      -0.65033500      -0.70253500
C       -0.31525310      -1.71044872       0.75172438      -0.94326400       1.75908400       2.18784000
C       -1.12349410       1.83875028       0.81146538       1.60385700      -1.64524600      -1.55568700
O       -1.22574210       0.89677328      -0.34626762      -0.64054200       1.25485400       0.71689900
H        0.00511590      -3.27156772       1.89741238       0.09512300       0.69015200      -0.03237800
H        2.12756090      -2.25556672      -0.40535862      -0.38617500      -2.01149200       0.87892200
H        0.18155290       1.81733928      -2.16632262       0.00110200       1.35959000      -0.58787900
H        3.42392290      -1.05819772      -1.79764062      -0.68886600      -0.07084900      -0.11275700
H        2.44571790       0.96599928      -2.84263862       1.49687500       1.19741600      -1.26628900
H       -2.29922510       3.30518428       1.71282538       0.10394400       0.45572800       1.11385800
H       -2.58536210       3.31415728       0.01056838       0.30948300      -0.33597800      -0.55300500
H       -3.06954710       1.83626328       0.96763938       0.39325300       1.50666500      -0.13550900
21
Lattice="10.0 0.0 0.0 0.0 10.0 0.0 0.0 0.0 10.0" Properties=species:S:1:pos:R:3:forces:R:3 id=SCAN_1 energy=-136.29136693 stress="0.0031461325390474706 -0.0038738925031254583 -0.0028289203207427054 -0.0038738925031254583 -0.007852686050129638 0.003037530280257102 -0.0028289203207427054 0.003037530280257102 -3.6313100094388794e-05" pbc="T T T"
C        1.96372442      -1.24460069      -0.33864274      -2.98426600      -3.38013000       3.34617900
C        1.36719642       1.39010431      -0.49315974      -0.93790300       1.17756800       0.51224900
C        2.91838142      -0.48236769      -0.81113774       1.95827600       3.11263100      -2.27027400
C        2.56480742       0.87067531      -0.95718574       0.37995300       0.96587100      -0.64554900
C       -2.87991358       2.19095331       0.44437726       2.05280400      -1.38646200       0.51212100
C        0.70749542      -0.77347169       0.21578626       0.68582800       0.01007500      -0.59639100
C        0.46356942       0.59117731       0.25331426      -0.94763200      -0.07132500      -0.98383600
O       -1.11397758      -1.35334569       1.57600626      -0.49397500      -1.31029500      -0.63708700
O       -1.60872358       1.17786931      -1.39798874       0.34977800      -0.09888000      -1.44992400
O       -0.22128758      -2.90085469       0.08896926      -1.37611900      -1.65161000       0.48356400
C       -0.36664158      -1.69540569       0.66157926       1.36935200       1.26755100       1.59638900
C       -1.69499958       1.46991931      -0.24244774      -1.51441500       0.57372300       2.08203500
O       -0.83894558       1.05944031       0.75986426       2.58966500       0.41361400      -1.17241600
H       -0.84778658      -3.54461569       0.55259526       0.66269200       0.86303200      -0.59287800
H        2.15350042      -2.27743269      -0.01624474      -0.02856900      -0.17147900      -0.85267300
H        1.05616542       2.42312231      -0.77774074       0.39065000      -0.57911300       0.42288300
H        3.84195842      -0.74501169      -1.35882974      -0.27819800      -0.57054400       0.81360800
H        3.23475342       1.52531431      -1.54456874      -0.30861600      -0.11851300       0.29726400
H       -3.08056658       3.13971631       0.07720226      -0.43644800       1.85862800      -1.37499200
H       -3.72203058       1.55810131       0.37799926      -1.29780900      -0.76236700      -0.23752100
H       -2.65159758       2.34239731       1.48481926       0.16495200      -0.14197700       0.74724700
21
Lattice="10.0 0.0 0.0 0.0 10.0 0.0 0.0 0.0 10.0" Properties=species:S:1:pos:R:3:forces:R:3 id=SCAN_2 energy=-136.92596216 stress="0.00570626851079314 -0.002583185864947556 -0.00013895471766953897 -0.002583185864947556 0.0009458757419911043 -0.0031467442069418074 -0.00013895471766953897 -0.0031467442069418074 0.0031201366535381666" pbc="T T T"
C        1.93718542      -1.19318978      -0.52128522      -0.98833500      -0.35561000       0.62254300
C        0.82636142       1.21400422      -1.40954522       1.58360000      -1.83195900       0.09078700
C        2.42277742      -0.58328578      -1.66396822      -0.50134400       0.91984800      -0.46421300
C        1.89865842       0.67313422      -2.13218722      -0.13434900      -1.73796200       0.73194900
C       -3.13054558       2.09707422       0.15457978      -0.01709200       0.28858800      -0.11527900
C        0.81225442      -0.69180078       0.21948578       0.59834000       1.59844700      -0.86681800
C        0.29563642       0.53235122      -0.29689522      -0.59345800       0.01015100      -0.46034700
O        1.40407242      -1.99850678       2.08339578      -1.22181100       0.38031900       0.06388300
O       -2.37632058       0.06258122      -0.86842822      -0.44729500      -1.39597500      -1.31423100
O       -0.67943258      -1.01494278       2.07964978      -0.34916900      -0.89807900       1.00274900
C        0.53085942      -1.29549578       1.55252778       1.26319500      -0.69220900      -0.40943600
C       -2.09045558       1.04925722      -0.25977622      -0.41106800       0.12647300       1.07383800
O       -0.80140758       1.25243422       0.19969578      -0.17987100       0.79409500       1.24272300
H       -0.79630158      -1.61292778       2.88824878       0.31710500       0.90296400      -0.93907300
H        2.29165542      -2.17113378      -0.17336522       0.29878800       0.29090900      -0.11322400
H        0.41869842       2.15416822      -1.62113422      -0.74634500       1.36453700      -0.55925600
H        3.18263242      -1.08143078      -2.25574422       0.24593600      -0.06938600      -0.01308900
H        2.26080142       1.01333222      -3.10808522      -0.07898000       0.48649600       0.34954900
H       -3.20089858       2.22337922       1.26860378      -0.01312600      -0.27010500      -0.78309300
H       -2.78551058       3.05923522      -0.23857922       0.06663400       0.30261900       0.08090900
H       -4.14521158       1.91407122      -0.33841422       1.30864300      -0.21416200       0.77913000
21
Lattice="10.0 0.0 0.0 0.0 10.0 0.0 0.0 0.0 10.0" Properties=species:S:1:pos:R:3:forces:R:3 id=SCAN_3 energy=-136.83963444 stress="-0.003770994983676147 -4.352828464390984e-05 1.208980317683587e-05 -4.352828464390984e-05 -0.001595323491066635 0.00028077428802785836 1.208980317683587e-05 0.00028077428802785836 -0.0024178982202759155" pbc="T T T"
C        2.02913453      -0.93697360      -0.19592738       0.83170700      -2.77044100       1.39935000
C        0.89618753       1.17643540      -1.50166738       1.05181900       0.43059200      -0.43701900
C        2.74414553      -0.40909760      -1.23830538      -1.55381600       0.63636000      -0.84681400
C        2.13549153       0.60990740      -1.93289738      -0.80990200       2.66903500      -0.89917800
C       -3.10197147       1.63688840       0.12350962      -0.26703100       1.81015900       0.70691900
C        0.83437653      -0.42493760       0.31689162       0.31474400      -0.97752300      -0.67721600
C        0.28501853       0.66037740      -0.38395338      -0.08080500      -0.68178000       0.84671600
O       -0.66827347      -0.52319560       2.16469262      -0.14688800      -1.02373700      -0.41200000
O       -2.14665447      -0.16818760      -1.15245338      -0.24224400      -0.08827200      -0.38043000
O        0.79547553      -2.26017060       1.88101162      -1.16791900       0.06789800       0.10307100
C        0.16239553      -1.10351860       1.46187362       0.91103200       1.59892700       1.08169100
C       -2.06597247       0.79893140      -0.42598238       0.74690400      -1.03521800      -0.25993700
O       -0.86686247       1.21211340       0.10986662      -0.12701900       1.01917500      -0.23050100
H        0.25546153      -2.51331260       2.67856962       0.49793400       0.05560000      -0.42731600
H        2.40999153      -1.93240560       0.19643462      -0.46645100       1.23247300      -0.03222500
H        0.45430453       2.09310040      -1.93723538       0.27081200      -0.58856900      -0.12783800
H        3.52274853      -0.88497660      -1.75725338       1.53104300      -0.83003200       0.00326800
H        2.62995253       1.11495340      -2.80683738      -0.37596500      -0.65055600       0.61437100
H       -4.10157547       1.49363140      -0.13639338      -1.70451300      -1.21398100      -0.74071500
H       -3.03586147       1.63854840       1.19494162       0.12766400      -0.15531200       0.93178800
H       -2.98765947       2.68758140      -0.12823738       0.65889300       0.49520100      -0.21598700
21
Lattice="10.0 0.0 0.0 0.0 10.0 0.0 0.0 0.0 10.0" Properties=species:S:1:pos:R:3:forces:R:3 id=SCAN_4 energy=-136.39921459 stress="0.00023178468289880067 -0.0011711193233259793 0.0014649258824086819 -0.0011711193233259793 -0.0001362209366724021 -0.001207707049821907 0.0014649258824086819 -0.001207707049821907 -0.0020751707126645397" pbc="T T T"
C        1.83527672      -1.14646000      -0.50009735       1.61941000      -1.29529700      -1.10684000
C        1.19452572       1.46047000      -1.14252835      -0.97849800      -0.86913200       0.93375700
C        2.55726572      -0.53987100      -1.56266235      -0.93522900       0.73727900       1.84598000
C        2.25689672       0.84265200      -1.76566735       0.60294400      -2.46154400      -1.58259200
C       -3.18251928       1.33355900       0.44800565       1.74406100      -0.38850600       0.95456400
C        0.82870672      -0.55888600       0.21687765      -1.48566300       1.38870300       0.86249400
C        0.39686972       0.76709900      -0.23456035       0.38453600      -1.39228400       0.44750200
O        0.04609472      -2.53092500       1.49475165       0.63202700       0.52354900      -0.14810200
O       -2.13736028       0.26374800      -1.40406735       0.25842100      -1.57237400      -1.78672400
O       -0.06551328      -0.51316500       2.47658065       1.00516000       1.20253500      -1.46573100
C        0.27949272      -1.32365200       1.44144465      -0.56431800       0.34179600      -1.95432500
C       -2.01957628       0.81147300      -0.35737635      -0.59189900       1.24618100       1.02040600
O       -0.83441428       1.32867500       0.13297165       1.13280800      -0.29797800       0.99775700
H       -0.42698628      -1.19254300       3.01385965      -1.15492300      -1.23448000       2.19510200
H        2.06539872      -2.20023000      -0.28926635      -0.01147300       0.19096200       0.26624400
H        0.81574072       2.42112700      -1.37356035      -0.09505900       1.13749400      -0.70264400
H        3.34973472      -1.14479200      -2.04663835      -0.49716600       0.70026100      -0.10780200
H        2.58538872       1.14815600      -2.74492135       0.66857400       1.21985600      -0.09763300
H       -4.03947528       0.71781900       0.33323565      -0.82080500      -0.87681400      -0.03691800
H       -2.87123828       1.45982000       1.51250465      -0.49957800       0.33918600      -0.66484700
H       -3.38304328       2.22643900      -0.10321135      -0.41332900       1.36061000       0.13035300
21
Lattice="10.0 0.0 0.0 0.0 10.0 0.0 0.0 0.0 10.0" Properties=species:S:1:pos:R:3:forces:R:3 id=SCAN_5 energy=-136.53098532 stress="-0.003509687962611919 0.0017139808210588016 -0.0005562120857530865 0.0017139808210588016 -0.0011729418439907372 -0.0002689903187981908 -0.0005562120857530865 -0.0002689903187981908 -0.0009620786996818972" pbc="T T T"
C        2.01561874      -1.06178524      -0.33140073      -2.59621800       0.89251900       1.29858800
C        0.79167974       1.07555576      -1.60708173       0.03611600      -0.47720900       0.48050100
C        2.50244874      -0.61867324      -1.52825573       0.52969400       0.23377800      -0.38624700
C        1.88514774       0.46731776      -2.16508973       0.38303600      -0.46482900      -0.04270700
C       -3.17924226       1.26383176       0.16581427      -1.22199300       2.66860600       0.11252100
C        0.78201074      -0.51245024       0.31454527       1.82117800       0.23697400      -1.02270900
C        0.25300674       0.56868276      -0.39407573      -0.41329900       1.32601700      -0.97966900
O       -0.54731426      -0.31472324       2.39134127      -1.66983600       1.33301000      -0.67181100
O       -2.02062226      -0.20832724      -1.30522873       0.11764500       0.54302400      -0.44249900
O        1.05524874      -1.76818624       2.39508427       1.63390500      -0.16632500      -3.34268600
C        0.30671574      -0.82165524       1.69711227       1.61769900      -1.00667100       0.60778700
C       -2.03120426       0.76896476      -0.57181273      -0.13654200      -1.99319400       0.17708200
O       -0.89843226       1.29189476       0.00590527       0.73625400      -0.45933000      -0.07864900
H        0.54225774      -1.76948924       3.17429627      -1.04921700      -0.33766600       2.50418200
H        2.51454374      -1.83976124       0.15552227       0.70994100      -1.30014300       0.98073300
H        0.37510474       1.92654176      -2.14499073      -0.41402200      -0.00774900       0.37859900
H        3.42947574      -1.05390224      -1.95073873      -0.52879000       0.09154500       0.21104400
H        2.26667774       0.80343576      -3.11146673       0.23108900       0.30282200      -0.48730000
H       -4.18331126       1.27176076      -0.22920773      -0.31344800      -0.96686600      -0.96818100
H       -3.19670026       0.70605376       1.08441527       0.06918700      -0.03191600       0.93012500
H       -3.08609826       2.36344076       0.31042427       0.45762100      -0.41639700       0.74129800
21
Lattice="10.0 0.0 0.0 0.0 10.0 0.0 0.0 0.0 10.0" Properties=species:S:1:pos:R:3:forces:R:3 id=SCAN_6 energy=-136.05542588 stress="0.002512344736368781 0.0028201135513660843 0.0015366470637742065 0.0028201135513660843 -0.002425581518009878 0.001411829364274793 0.0015366470637742065 0.001411829364274793 0.0010731276300496122" pbc="T T T"
C        1.43502333      -1.61465823      -1.02070373      -0.01493700      -0.45313800      -1.22455900
C        1.00062733       1.07982477      -1.11011873      -1.03861700       0.61774400      -0.87133200
C        2.29197833      -0.77230923      -1.78409373       0.44352800      -1.45210600       0.06676300
C        2.08131933       0.61609177      -1.78938573      -0.91342800      -3.81066700       1.34269200
C       -2.54280667       2.12411577       1.25118527      -1.22663400       1.27401600      -1.69907500
C        0.31374033      -1.12555223      -0.30802873       0.63120100       0.40988000      -0.45158000
C        0.07466233       0.25772877      -0.51076773      -0.57642200      -0.46250800       2.07859700
O       -1.15688067      -1.35800423       1.58426527      -0.44586700      -0.35650100       0.33089100
O       -0.25116667       2.91078577       0.30749927      -1.67122600       0.16393300       0.61141900
O        0.16535333      -3.07122723       0.99072627       0.58377700      -1.43548200       0.02781400
C       -0.36326467      -1.86912423       0.81136827       0.21199800       1.60694700      -0.53278300
C       -1.16566467       2.11581977       0.47460727      -0.34213500      -0.93279100       0.99431700
O       -1.04595167       0.74862477       0.16602927       0.27103200       0.81847500      -1.01371200
H       -0.16473167      -3.41954423       1.84328827      -0.16514200      -0.05353800      -0.03567600
H        1.54751933      -2.71096123      -1.19866473       0.13637300       0.69177200       0.73431500
H        0.79610833       2.11058077      -1.25172973      -0.23999200       0.80946000       0.25247300
H        3.11662033      -1.34152123      -2.31697273      -0.78053900       1.08163700       0.39467400
H        2.64030533       1.33022177      -2.21893373       2.47314100       2.12456200      -1.90691300
H       -2.35800567       2.19553077       2.34363427      -0.07936500      -1.04872700      -0.36932300
H       -3.21066367       3.03256177       1.12733627       1.19253100      -0.09483500      -0.36106200
H       -3.26084567       1.35315377       0.74969227       1.55072300       0.50186600       1.63205800
21
Lattice="10.0 0.0 0.0 0.0 10.0 0.0 0.0 0.0 10.0" Properties=species:S:1:pos:R:3:forces:R:3 id=SCAN_7 energy=-136.28468585 stress="-0.00790068325530768 -0.0006436244210610815 0.0042322924401519265 -0.0006436244210610815 -0.012299212049518381 0.0007841894480850985 0.0042322924401519265 0.0007841894480850985 0.0038066776913488216" pbc="T T T"
C        1.81181394      -1.34458804      -0.45670639      -0.42721700      -0.94640700       1.52804300
C        1.57217394       1.43438696      -0.67674739      -1.48137100      -2.16906000       1.56907400
C        2.87927994      -0.58501604      -0.72740339       2.21438500      -1.01551200      -1.84533000
C        2.72639894       0.75055196      -0.95759239       1.33111000       1.95227900      -0.77464500
C       -2.89976906       1.34559096       0.84894261      -0.43811400      -1.65148000      -2.75363700
C        0.62934294      -0.76286704      -0.05032139      -0.47491200       0.65354100       0.57013300
C        0.54922194       0.60791696      -0.06561839       0.96063200       2.53226700      -1.14344300
O       -1.60628706      -1.11577604       0.55530161      -1.94507600      -0.41659600       0.81207100
O       -1.80233706       1.36798496      -1.35189539       0.56203600      -0.01192100       2.18526500
O        0.03108494      -2.55867504       1.23658961       1.14902000       0.26331700      -0.04230400
C       -0.45700406      -1.44197504       0.66460061       1.80061300      -0.82231100      -1.91054300
C       -1.71935706       1.34154696      -0.12115339       0.24480200       0.10300500      -0.04137800
O       -0.47954706       1.21637896       0.62128161      -1.34525900       0.60902800      -1.06566900
H       -0.62877706      -2.92634604       1.79479361      -1.61039400      -1.07755900       1.12689200
H        2.01945994      -2.34928104      -0.21811539      -0.24297000      -1.56874200      -0.07506700
H        1.48316994       2.49587596      -0.69858739      -0.17315900       0.77104300      -0.18072400
H        3.82626094      -1.12314404      -0.97003339      -0.43589400       0.66285700       0.24456100
H        3.57720694       1.29193496      -1.37210739       0.11786800       0.20417200       0.07154100
H       -3.70181606       1.35957796       0.06186261      -0.08675800      -0.22073000       1.00227700
H       -2.90771106       0.39149796       1.41629461      -0.03098100       0.46311800      -0.34381800
H       -3.08381606       2.13915396       1.50297361       0.31164100       1.68569100       1.06669900
21
Lattice="10.0 0.0 0.0 0.0 10.0 0.0 0.0 0.0 10.0" Properties=species:S:1:pos:R:3:forces:R:3 id=SCAN_8 energy=-136.05244659 stress="-0.007333829396494961 -0.0006045276078965488 0.002137017826592917 -0.0006045276078965488 -0.000579442982719624 0.0002215673324597298 0.002137017826592917 0.0002215673324597298 -0.0003557597786662198" pbc="T T T"
C        1.97611613      -1.13475064      -0.38585873       1.93047100      -0.86310800      -1.44557900
C        0.66708513       1.03792336      -1.61959673       0.85406400       1.75462200      -2.11545800
C        2.48161713      -0.66755564      -1.63278773      -2.40237800       2.70483400       1.50898400
C        1.83002713       0.50726736      -2.17148273       1.21585900      -2.09958500      -2.65669700
C       -2.94089187       1.86395636       0.48068927       1.01953400       0.89276100      -0.15056500
C        0.84297913      -0.53832764       0.21391227       0.75019400      -0.37858100       1.28263500
C        0.28296813       0.58400736      -0.39070573       0.21439500      -0.10915700      -0.24510300
O        0.83471813      -2.23870564       1.89530027       1.51597600      -1.49926900       0.36964000
O       -2.12868087       0.05896036      -0.88283673      -0.06018200       1.00307500       0.43462500
O       -0.61075387      -0.65305264       2.13574327      -1.48335300       4.32309000      -1.45322800
C        0.40907313      -1.17276664       1.52257327       0.22130300      -1.18898500      -1.33002800
C       -1.89343487       1.05582236      -0.17303573      -2.85463600      -2.34909000      -1.71908400
O       -0.69473887       1.39181236       0.14635427       2.13695700       0.93031200       1.94498600
H       -1.01143987      -1.08784364       2.85662027      -0.26071900      -1.72174300       1.69450200
H        2.59611613      -1.99449164       0.02680327      -1.38825400       0.92587100       0.16779400
H        0.09032013       1.92511436      -2.10974873       1.08626100      -1.56672300       0.86987500
H        3.37592713      -0.92124864      -2.15629273       0.64725300      -0.93302900       0.05711500
H        2.25053013       0.67661936      -3.25589073      -1.10175000       0.63934000       1.94316800
H       -3.57215187       1.08690136       0.78825527      -1.47780700      -0.91843300       1.18362600
H       -2.48468787       2.45999336       1.28829527      -0.54698600       0.00210500      -0.12333200
H       -3.51524687       2.44059836      -0.23685273      -0.01620300       0.45169300      -0.21787900
21
Lattice="10.0 0.0 0.0 0.0 10.0 0.0 0.0 0.0 10.0" Properties=species:S:1:pos:R:3:forces:R:3 id=SCAN_9 energy=-136.38490809 stress="-0.0018394164299616773 -0.0008110404203446482 0.0017539576870100838 -0.0008110404203446482 -0.00952583491848691 -0.0020009903767034174 0.0017539576870100838 -0.0020009903767034174 0.0007194462739223114" pbc="T T T"
C        1.90667960      -1.23685634      -0.30868660       0.60870000       0.87695100       0.17711700
C        1.39464660       1.49666566      -1.02842060       2.36152700      -2.18942400      -0.52219800
C        2.92765160      -0.45015834      -0.96341660      -2.70471700      -0.96661400       1.46896500
C        2.62888460       0.85659666      -1.25007660       1.86541900       2.18814800      -1.37692400
C       -2.93107740       1.61344966       0.59974840      -2.07378900       1.07988100       0.25220600
C        0.71392660      -0.54767934       0.02373740       0.69323700      -0.85442800      -0.75784300
C        0.44458160       0.75915366      -0.43955660      -1.46718700      -1.10764200       1.19454700
O       -0.66756540      -0.58717034       1.93341140      -0.89897100       0.86772700       0.21368300
O       -2.18626240      -0.16505734      -0.86368360      -0.94069600      -1.91576400      -1.21273900
O       -0.13179140      -2.46173634       1.01758940      -1.94022600      -5.17058600       0.53632000
C       -0.13238140      -1.19782334       1.00794140       0.17233700       3.76677100       1.10829100
C       -2.00413840       0.81720666      -0.22741960       1.93595600       1.48350200       1.18302200
O       -0.73059140       1.40624766      -0.15405560      -0.41626700       0.61330400       0.36365000
H       -0.88935740      -2.67653634       1.68953640       1.70234900       0.07639000      -0.97740500
H        2.02866660      -2.27841634       0.12998340       0.14229500       1.25946300      -0.81604300
H        1.17660360       2.42992066      -1.38352760      -0.36405000       2.57034600      -0.80080500
H        3.89844660      -0.79467034      -1.12016360       1.57215000      -0.85360000      -0.38887900
H        3.49437060       1.46455466      -1.72346960      -1.41715500      -0.74926800       0.64606100
H       -3.59061940       2.28967466      -0.10121960       0.98454900      -1.11767400       1.32549200
H       -3.57298440       0.92388566       1.18838340      -0.17656000       0.03493700      -0.74073800
H       -2.49036440       2.20134166       1.43105040       0.36110000       0.10758300      -0.87577900
21
Lattice="10.0 0.0 0.0 0.0 10.0 0.0 0.0 0.0 10.0" Properties=species:S:1:pos:R:3:forces:R:3 id=SCAN_10 energy=-136.17663473 stress="0.0009578531980036743 0.003320713790807551 0.001880123552480688 0.003320713790807551 0.0007045665161662058 -0.006554533291564555 0.001880123552480688 -0.006554533291564555 0.003527619818330581" pbc="T T T"
C        1.82812106      -1.17639270      -0.39506461      -0.91163100      -0.16168100      -0.66656100
C        1.38718106       1.48604430      -1.21178861      -2.44999200      -0.51981700       0.91894900
C        2.67542906      -0.60929870      -1.34108561      -1.85525100       1.90677200       0.63428300
C        2.45918806       0.76249030      -1.69111461       0.30653600      -0.83337000      -0.08439000
C       -3.14649694       1.34544830       0.27792339      -3.10633800       2.24626500       2.28734700
C        0.69579306      -0.48235070       0.09578839      -0.23445800       0.85912600       1.74199600
C        0.38600306       0.81485130      -0.37189461       1.67244500       0.88407900      -0.59447900
O       -0.92375094      -0.58025670       2.03117939       0.45341900       0.68971100      -0.69119000
O       -1.97946894      -0.17616170      -0.93466261       0.39588900      -2.36887900      -1.06661900
O        0.50398506      -2.26015570       1.66628839       2.24484500       0.65071500      -1.94778600
C        0.00513106      -1.02276470       1.36018939      -1.08337700      -1.23401700      -0.28408200
C       -1.95018094       0.75017030      -0.18156161       0.91173500       0.31181400      -2.19482500
O       -0.79038394       1.49128330      -0.00430061       1.27929900      -0.13199400       0.36285000
H        0.04069206      -2.84254670       2.24060639      -1.44834600      -0.28279400       1.39491200
H        1.73088906      -2.23743270      -0.16179761       0.95222100      -0.03809000       0.06277700
H        1.17636306       2.50372530      -1.58107461       0.05756900      -0.35251500       0.22353700
H        3.34048906      -1.15036070      -1.93262661       1.40817800      -1.11949200      -0.60979900
H        3.06665306       1.23422630      -2.46995161       0.18894300      -0.09166900       0.20570900
H       -2.82681194       1.94139830       1.19587839      -1.00103900      -0.02800400      -0.92684800
H       -3.75133094       2.00106630      -0.54162361       1.58319400      -1.38950000       1.81045100
H       -3.83302294       0.51308530       0.65217939       0.63616000       1.00334000      -0.57623300
21
Lattice="10.0 0.0 0.0 0.0 10.0 0.0 0.0 0.0 10.0" Properties=species:S:1:pos:R:3:forces:R:3 id=SCAN_11 energy=-136.61961554 stress="0.002031448941237728 -0.001316352999176157 0.0011142030016070498 -0.001316352999176157 0.009833422729719562 0.0002547971270459322 0.0011142030016070498 0.0002547971270459322 0.002214075498261072" pbc="T T T"
C        2.11213143      -0.96060475      -0.14748043       0.45540700       0.63648400      -1.33005200
C        0.99622143       1.29931225      -1.60937543       0.43150900      -1.55710200       0.41430600
C        2.64455843      -0.46918275      -1.36839843       0.65994500      -0.24257600       0.80290600
C        2.18163743       0.67038825      -2.05094443      -0.91669800      -0.57175700       1.01058500
C       -3.18782257       1.50566825       0.11421757       0.83106600       0.08014500       0.91466700
C        0.93511743      -0.40961775       0.28192357      -1.60354800       0.68618300       1.53172400
C        0.46168643       0.66562225      -0.47858943      -2.95397300       2.05567700      -0.16529400
O       -0.52386057      -0.14236475       2.27693957       1.42578300      -2.24155800      -1.17878700
O       -2.07591157      -0.60191975      -0.54951743       0.41377900       0.62657200       0.03494400
O        0.29673243      -2.27968475       1.62864857       0.46423000       1.70159400      -0.59763400
C        0.15783443      -0.89607375       1.54804357      -0.32041500       1.41646400      -0.66908200
C       -1.98711657       0.57922725      -0.25813643      -0.86826800       1.03862000       0.63081900
O       -0.82246457       1.34777525      -0.16407643       0.42389300      -1.74042000      -0.03287200
H       -0.36149857      -2.58749875       2.24446157      -0.83774700      -0.46918800       1.12420900
H        2.61565443      -1.66204975       0.49528557       0.27126700      -0.67130800      -0.20930300