21
Lattice="10.0 0.0 0.0 0.0 10.0 0.0 0.0 0.0 10.0" Properties=species:S:1:pos:R:3:forces:R:3 id=SCAN_0 energy=-136.13964187 stress="0.001698932542556297 0.000607036694565154 0.002673475535962583 0.000607036694565154 0.0001300668086742812 0.0017132006324180663 0.002673475535962583 0.0017132006324180663 0.0025773875029696104" pbc="T T T"
C        2.13448881      -0.98436105      -0.19521790      -1.58284100      -0.03863900       1.11448600
C        0.76264381       0.95941395      -1.67992890      -1.81521600       0.99272600       0.00219400
C        2.66034481      -0.40792605      -1.30730390       3.24110700      -0.88934700      -0.20810100
C        1.91031681       0.39396595      -2.14701990      -0.08239600       0.03811400       0.94845200
C       -3.03019019       1.49540495       0.71966210      -1.47075100      -1.21244600      -0.96609900
C        0.84942481      -0.55087105       0.28437510       0.34805900       0.53313300      -0.29362000
C        0.23844681       0.47350595      -0.40442190       0.00977000       3.02070700      -2.20151600
O        0.89789581      -2.27643205       1.73006110      -0.46377700      -1.31560100       1.85858700
O       -2.38345219       0.41777895      -1.46285690       0.49629300       0.44988400       1.31784700
O       -0.47620119      -0.52908705       2.33925910       0.32248400      -1.29128600       0.82581600
C        0.39299181      -1.19023705       1.53798210       0.74855500       0.67565700      -1.99192300
C       -2.12298519       0.95175995      -0.39770490      -0.05547100       0.60628000       1.00407000
O       -0.80466619       1.28624595       0.11050910      -0.58759700      -1.93898900      -0.71618500
H       -0.49380319      -1.18679205       3.09597410      -0.47704100       0.75084500      -0.18303100
H        2.55473481      -1.80249705       0.39213110       0.51728200       0.33262500      -0.10211200
H        0.33068981       1.85571095      -2.34526390       0.29083800      -2.11128900       1.81238400
H        3.80379381      -0.49371905      -1.45620290      -1.76571800      -0.43232900      -0.36374200
H        2.23114081       0.55718595      -3.12414990       0.87231500       0.81082900      -1.62932700
H       -2.70893019       2.48465795       0.92692810       0.24473200       1.41911200       0.01343000
H       -4.13048319       1.48216695       0.43126610       1.20638300      -0.02710300       0.28427600
H       -2.87414819       1.00320895       1.69948510       0.00298800      -0.37288400      -0.52588600
21
Lattice="10.0 0.0 0.0 0.0 10.0 0.0 0.0 0.0 10.0" Properties=species:S:1:pos:R:3:forces:R:3 id=SCAN_1 energy=-136.58392577 stress="0.004544935873776545 -0.002998034010508512 -0.00013491021975596665 -0.002998034010508512 0.004760386527292909 -0.0004196478660787609 -0.00013491021975596665 -0.0004196478660787609 0.0038602984962492846" pbc="T T T"
C        1.91282187      -1.34639773      -0.31699904      -0.61839300      -0.31633300       1.74303200
C        1.34071087       1.45485027      -0.78646504      -0.72771900      -1.68215300      -0.39579200
C        2.73054987      -0.59958573      -1.09802504       0.11344900       1.44543100      -1.21208400
C        2.36478087       0.73857927      -1.46352404      -0.37694600      -0.45925400       1.44540400
C       -3.01398513       1.97782827       0.42068696      -0.05499400      -1.23852700       0.32358900
C        0.76835687      -0.72969673       0.21595296      -1.22003500       0.59013500       0.12211400
C        0.44296187       0.63175927      -0.00015904       0.51929100       0.75248800       0.25702300
O       -1.44289113      -1.48546473       0.89958396      -0.33816800       0.28660300      -0.06447400
O       -1.53074913       1.29142127      -1.45861104      -1.13309100       0.23261600       0.92459600
O        0.36843587      -2.67051973       1.71684596      -0.37456900       2.44331200      -1.70162600
C       -0.23586113      -1.54319973       0.92117696       1.32117600      -2.09571300       1.07937300
C       -1.78978013       1.41991127      -0.26829504       1.44324900      -0.39062800      -0.29075500
O       -0.74327913       1.12690327       0.68765196       0.57209900       0.14846400      -1.67215700
H       -0.50164413      -2.95204373       2.01212196      -0.61059600      -1.02833300       0.76060000
H        2.11360087      -2.36088373       0.06478396       0.13730000       0.29057500      -0.50842200
H        1.16670887       2.51262227      -1.05812104      -0.19991100      -0.55992200       0.34593000
H        3.64886787      -1.01938773      -1.46973604       0.35215000      -0.17530600      -0.46029500
H        2.88814087       1.20231527      -2.27787804       0.55946900       0.50636500      -0.17056700
H       -3.30188813       2.83899927      -0.15106804      -0.13805600       0.94613700      -0.11983500
H       -3.93261313       1.32524427       0.40054396       0.96894600       0.03924600      -0.12323600
H       -2.76379413       2.16919727       1.47685396      -0.19465300       0.26479500      -0.28241800
21
Lattice="10.0 0.0 0.0 0.0 10.0 0.0 0.0 0.0 10.0" Properties=species:S:1:pos:R:3:forces:R:3 id=SCAN_2 energy=-136.84284719 stress="-8.319307513889795e-05 0.00024379958796612598 -0.0018953528347478432 0.00024379958796612598 0.0013699550795492424 -0.004337911257580123 -0.0018953528347478432 -0.004337911257580123 0.00614068378746374" pbc="T T T"
C        1.91537052      -1.23015443      -0.38161569       0.66521700       0.00008300       0.61664300
C        0.93052952       0.96500357      -1.79778369       1.19784500      -0.13382800      -1.39788900
C        2.70541152      -0.63704543      -1.43838569      -0.44322800      -1.95447200       1.97009700
C        2.17482152       0.36969057      -2.14823169      -0.16043700       2.74996000      -1.86685700
C       -2.84186948       1.72941657       0.69858031      -1.04112200       0.83234300      -1.46223600
C        0.64553252      -0.75619543      -0.02516269       0.13881100       0.18290700      -0.84414200
C        0.17305652       0.36123357      -0.87275269      -1.38445100      -1.54020900       3.58059800
O        0.17032552      -2.10590443       2.10380231      -0.23028100       1.01460900      -1.97525700
O       -0.52755448       1.93249357       1.32618531       1.18330100       0.51260900       1.29001400
O       -1.49039148      -1.50851743       0.62700231      -0.41533800      -1.27877200       1.16876100
C       -0.19071548      -1.52614843       1.06623131       0.78028500       0.42292500      -0.35939200
C       -1.38200448       1.56175157       0.58642331      -0.30731100      -0.97917900      -1.96270000
O       -1.10375548       0.87195057      -0.61638169      -0.16030800       0.20720000      -0.04694600
H       -1.95758248      -2.16649043       1.23217831       0.34109200       0.84194900      -0.56100100
H        2.32019652      -2.04408543       0.26149931      -0.05949900       0.39947100      -0.55524900
H        0.53432752       1.86541657      -2.26183069       0.11191800      -0.03652900      -0.27942800
H        3.71974652      -0.96901543      -1.64032269      -0.00079400      -0.33581900      -0.01133700
H        2.76204452       0.82589657      -3.00110269      -0.57158400      -0.38561600       0.91023400
H       -3.05424448       2.44424857       1.45876931      -0.18017400       0.70950100       0.85963000
H       -3.32110048       2.11898057      -0.26301569       0.67828200      -0.59454700       0.91284900
H       -3.33969248       0.80739357       0.95942231      -0.14222600      -0.63458600       0.01361000
21
Lattice="10.0 0.0 0.0 0.0 10.0 0.0 0.0 0.0 10.0" Properties=species:S:1:pos:R:3:forces:R:3 id=SCAN_3 energy=-136.26362725 stress="-6.154127998120893e-06 -0.0005537966217213698 -0.002352562102746169 -0.0005537966217213698 0.0063505670148398165 -0.0023435992956414007 -0.002352562102746169 -0.0023435992956414007 0.004517891414734093" pbc="T T T"
C        2.04997081      -1.05126529      -0.37990413      -0.96671100      -1.18811200       0.81385000
C        0.84862481       1.10590071      -1.63686413       0.05416200       0.19746600      -1.16798900
C        2.46391281      -0.73983129      -1.65917513       1.31159000       1.25959700      -2.09433400
C        1.88021081       0.44146071      -2.34642813       0.11168900      -2.08142000       2.23366000
C       -3.04794219       1.26564271       0.81475487      -0.56009200      -1.88831900       1.82875000
C        0.97189581      -0.36912929       0.23092787      -0.12663700      -0.18930800       0.13042900
C        0.29745081       0.67783671      -0.45206613       1.30480600      -1.29991900       2.17434400
O        0.82180581      -2.07788229       2.00717787       1.39581500       0.71098200      -0.87856300
O       -2.21735119       0.21032471      -1.15677113       0.12183400       0.12085300      -0.34341900
O       -0.63219419      -0.46743429       2.04598887      -0.46782100       0.69791500       0.42345400
C        0.50169281      -0.98472729       1.50435587      -1.50651000      -1.96441600       0.50269900
C       -2.00852519       0.89730771      -0.17790813      -0.15237000      -0.22192700       0.54283100
O       -0.77251019       1.26871671       0.26467387       1.11272900       0.57421000      -1.45491100
H       -0.87361419      -1.14549729       2.72893487       0.21508500       0.38046200      -0.25587300
H        2.26602381      -2.00592129       0.20027887       0.56098700       1.13190600      -0.84676500
H        0.38719781       1.99285671      -2.00451913      -0.31328700       0.74745300      -0.88143300
H        3.36879281      -1.30805629      -2.13351813      -1.79357700       0.92112700       0.66763000
H        2.15770281       0.70404571      -3.37680613       0.04634000       0.11969100       0.46434200
H       -3.87199919       1.70360271       0.28243087      -1.05123500      -0.42024300      -0.34378400
H       -3.26152419       0.18318671       1.36520287      -0.04309000       2.66295700      -1.34394700
H       -2.84937419       1.99582871       1.61499787       0.74629300      -0.27095400      -0.17097000
21
Lattice="10.0 0.0 0.0 0.0 10.0 0.0 0.0 0.0 10.0" Properties=species:S:1:pos:R:3:forces:R:3 id=SCAN_4 energy=-136.2726439 stress="0.006712661925268808 0.0015853245934469697 -0.005767241813443893 0.0015853245934469697 0.004077534221375652 0.00014131400811912286 -0.005767241813443893 0.00014131400811912286 0.0012645609564495776" pbc="T T T"
C        1.86821394      -1.23831605      -0.55609658      -1.13813800      -0.54165800       1.11755000
C        1.74850494       1.40904395      -0.19489958      -2.57787000       1.51225300       0.86776000
C        2.94664794      -0.41460505      -0.88844058       0.97705200      -1.48576100      -1.33613800
C        2.94217494       0.99768395      -0.66277058       0.81796800      -2.36370300      -0.40962800
C       -2.90093306       2.14715295       0.60824942       1.07446000      -3.52592800       0.73420700
C        0.63889994      -0.70392605      -0.01926658      -0.23629200      -2.17226700       0.09620800
C        0.52231894       0.65095295      -0.01272058       1.58315800       2.19259300       0.18200400
O       -1.37067606      -1.12329905       1.27868242       1.86972200      -1.88406800      -0.85345400
O       -2.00274906       0.44592195      -0.98867858      -0.73283100       1.06547400      -0.16200600
O       -0.25580306      -2.94900305       0.25022742       0.33691100       1.76490600       0.41550800
C       -0.42521606      -1.60497005       0.61438642      -0.80369600       1.50462600      -0.73022400
C       -1.80409706       1.32506895      -0.16153558      -0.80258300      -1.61109000       0.51309600
O       -0.56085406       1.44878395       0.37617842       0.91502600       0.77167100       0.78759200
H       -0.87588106      -3.42823505       0.80177142      -0.80068300      -0.66478500       0.48712200
H        1.81231594      -2.37414605      -0.51870658       0.83810000       1.35260000      -0.59163000
H        1.66057594       2.41176495       0.17713042      -0.23035900       0.90321100      -0.15321400
H        3.76828594      -0.95699005      -1.43974058      -0.36717800       0.78051300       0.78768100
H        3.85081394       1.63523195      -0.79579458      -0.85695300      -0.47619500       0.12199500
H       -2.55335806       3.00523995       1.12890242       0.36378500       0.81898800       0.49065700
H       -3.67112906       2.31366395      -0.06822558      -1.45320100       0.86280600      -1.55063600
H       -3.41430606       1.37574695       1.32909142       1.22360000       1.19581500      -0.81445300
21
Lattice="10.0 0.0 0.0 0.0 10.0 0.0 0.0 0.0 10.0" Properties=species:S:1:pos:R:3:forces:R:3 id=SCAN_5 energy=-136.38959982 stress="0.0023386747449410795 -0.002236295270749216 0.001814843608533075 -0.002236295270749216 0.0051929168682074926 -0.004577666347632677 0.001814843608533075 -0.004577666347632677 0.0035101560757963596" pbc="T T T"
C        2.12360420      -1.08220959      -0.29276379      -1.76614400       2.04067500      -1.81948000
C        0.74887420       1.05811941      -1.59345979      -0.84757500       1.89533400      -0.67663800
C        2.52806920      -0.59949059      -1.58242979      -2.49693400       0.56199600       2.08408100
C        1.80041020       0.42231241      -2.22812179       0.69757900       1.22447000      -0.06598900
C       -3.13007680       1.70581341       0.47243021       1.55308200       0.13707900       0.17153000
C        0.92309820      -0.45261159       0.27343421       1.95046500      -3.33528400       2.45399700
C        0.30283520       0.58707041      -0.36611579      -1.05593500       0.56229100      -0.58978100
O        1.07924220      -2.26497859       2.04750221      -1.20405600       3.11034100      -1.30273400
O       -2.29570780       0.45096641      -1.39274979       0.27954100       0.01450200       0.61643600
O       -0.62113480      -0.76988859       2.31339121       1.19989000      -0.37252700      -0.98623300
C        0.51345620      -1.19322859       1.63499921       0.68039200      -1.67843500      -0.65956700
C       -2.08626580       1.02943941      -0.33451579       0.02548000      -0.72622100      -1.88837900
O       -0.79981580       1.21990041       0.17541321      -0.67167600       0.23214800       1.20443000
H       -0.68150680      -1.57717959       2.87085821      -0.49756500       0.20221200       0.63184300
H        2.54029920      -1.95011559       0.20005221       0.27720200       0.02375100       0.19708600
H        0.26715620       2.06434541      -1.97953479       0.85272200      -2.18250100       0.47676600
H        3.37509320      -0.90279159      -2.07079379       2.23063800      -1.28491200      -1.02320800
H        2.15903720       0.95150141      -3.14415579      -0.01112900      -0.90875900       0.40937500
H       -3.87579580       2.15662941      -0.14076879      -0.25687500       1.01203000      -0.74495900
H       -3.71025880       1.03502541       1.03703121      -0.55373300      -1.51607200       1.04301200
H       -2.55740180       2.30513141       1.16107321      -0.38537100       0.98788300       0.46841200
21
Lattice="10.0 0.0 0.0 0.0 10.0 0.0 0.0 0.0 10.0" Properties=species:S:1:pos:R:3:forces:R:3 id=SCAN_6 energy=-135.9123871 stress="0.0024542550109341857 0.0039854532372414955 -0.0024614889200110838 0.0039854532372414955 -0.0024629619161647925 -0.003128231890874437 -0.0024614889200110838 -0.003128231890874437 0.007001568899687693" pbc="T T T"
C        1.94373803      -1.12190609      -0.54240165       1.65790900       3.40761400      -4.49374400
C        0.99291603       1.35484991      -1.57269065      -0.51287400      -1.63608600       1.26123600
C        2.62563003      -0.53110909      -1.72131765      -1.82268500       0.92000000       2.72752500
C        2.12606503       0.72246391      -2.14591365      -0.64109300      -0.24934800      -0.50998300
C       -3.07824597       1.81977291       0.05110235       1.30598000      -0.04165300       1.57082300
C        0.89039703      -0.51656409       0.03505735      -1.93901400       1.82944200       0.58706100
C        0.36034303       0.70687191      -0.45276865       0.92718500       0.18458100      -0.87263500
O        0.17583703      -2.29128609       1.48834135       0.17748100      -1.12284300      -0.36156400
O       -2.29219397      -0.55632709       0.26895135       0.26839900       0.03300200      -1.00641300
O       -0.07219697      -0.21676609       2.17146635      -0.75575000       0.22454000       2.55781600
C        0.27147203      -1.10362309       1.24360335       0.34700200      -1.03548100       0.19681200
C       -2.06452297       0.59975491       0.01414335      -0.75728200       1.96010600       1.62852600
O       -0.77819697       1.23148991       0.14688335      -0.03447200       0.07672000      -1.61451400
H       -0.36985097      -0.78607409       2.98284735       0.53000000       1.06079100      -1.68611500
H        2.12896003      -2.06208509      -0.28594365       1.36558500      -4.02205300       1.46120700
H        0.55817703       2.23286891      -2.04555365      -0.02080200       0.11968300       0.16687400
H        3.59125903      -0.87859909      -2.05085765       0.05489500      -0.55278100      -0.43292300
H        2.43179103       1.17466691      -3.10297065       0.53364100      -0.10030600       0.41078800
H       -3.65343697       1.68065291       1.04530035       0.12585200       0.06081200      -1.80553200
H       -2.39145197       2.69339391       0.27184735      -0.81580000      -0.59760200      -0.44474700
H       -3.64546297       2.04819391      -0.87819465       0.00584200      -0.51913600       0.65950000
21
Lattice="10.0 0.0 0.0 0.0 10.0 0.0 0.0 0.0 10.0" Properties=species:S:1:pos:R:3:forces:R:3 id=SCAN_7 energy=-136.61075611 stress="-0.004346037702462023 0.001858996044089573 -0.0007924344816403902 0.001858996044089573 -0.0052183073273315865 0.0002272533472734094 -0.0007924344816403902 0.0002272533472734094 -0.006727516716988411" pbc="T T T"
C        1.78169664      -1.29213582      -0.61799304       0.80395400       1.68747400      -0.89567300
C        0.73353364       1.04915718      -1.64525904       0.37506600       1.68642000      -0.12046300
C        2.27256864      -0.75770682      -1.85033504      -0.61463000       0.35297900       0.84699200
C        1.76496064       0.47451918      -2.36644404      -0.70774300      -2.89680400       2.30522300
C       -3.07672536       1.53583818       0.54462796       0.54127800       0.34892500      -1.33058700
C        0.82908664      -0.59266982       0.15878396       0.51467700      -0.84456400      -0.80661400
C        0.31400164       0.55988918      -0.43717704      -0.80834200       0.67239600       1.48216900
O        1.17572564      -1.65040682       2.30576296       1.92316100      -1.90090800       1.30877200
O       -2.05920736      -0.09448282      -0.76926504      -0.42104700      -3.01322100      -2.22762400
O       -0.65391136      -0.44790182       1.94328096      -0.68555500       0.10591000      -0.82187900
C        0.50311264      -1.03588682       1.54441996      -1.33151100       2.13610100      -1.28842100
C       -1.93371836       0.81796918      -0.04059004       1.28667000       2.45936900       1.84113000
O       -0.66524036       1.37225718       0.24812096      -0.01121300      -0.77114400      -0.99833200
H       -0.74349636      -0.54720682       2.88611996      -0.04880200      -0.42226700       1.33201500
H        2.33718464      -2.10840582      -0.20708204       0.00549300      -0.79131000       0.40867000
H        0.37151464       2.06784418      -1.84690704      -0.17154200      -0.38011600      -0.49795300
H        3.11624764      -1.26714682      -2.31596404      -0.14794500      -0.05249100      -0.23458500
H        1.97366364       0.75522918      -3.33470104       0.92963000       1.07262700      -2.04440400
H       -3.71779736       0.80257718       0.95669096      -0.97028600      -0.61739900       0.74776100
H       -2.82697736       2.36229618       1.15123096       0.25952200       0.86345800       1.10706200
H       -3.51807036       1.92031918      -0.37310104      -0.72083400       0.30456400      -0.11325800
21
Lattice="10.0 0.0 0.0 0.0 10.0 0.0 0.0 0.0 10.0" Properties=species:S:1:pos:R:3:forces:R:3 id=SCAN_8 energy=-136.3017316 stress="-0.0028401425541510436 0.004808071657014658 -0.0018910025028871025 0.004808071657014658 -0.002082535693433082 -0.0006011010193864389 -0.0018910025028871025 -0.0006011010193864389 0.0010434430126469115" pbc="T T T"
C        1.92179653      -1.17710009      -0.29663644       0.23874400      -3.14810700       0.18574300
C        1.49775153       1.45259391      -0.50778244      -0.85733900       0.94873900       0.76305500
C        2.92208553      -0.39918609      -0.82230844       1.12413000      -0.14111900      -0.91877100
C        2.74979253       0.97421891      -0.89701744      -1.89700400       0.17024300       0.47027900
C       -2.62442547       2.21092491       0.69489456       2.89156300       0.88233600      -0.90767700
C        0.67656353      -0.72098809       0.09661056      -1.10266500      -1.14307600       1.42181400
C        0.43978853       0.59947591      -0.06316844       2.06428800       1.85093900      -0.07417200
O       -1.49777847      -1.29623309       1.23754056       0.91761500      -0.50738900       0.51571500
O       -1.99120847       0.75432291      -1.28269544      -0.20070700       0.06087100      -0.17698900
O       -0.01886547      -2.87311809       0.39957856      -1.34856800      -1.57497700       1.71915500
C       -0.40542247      -1.61450109       0.79523056       0.73415500       0.54610700      -2.96114300
C       -1.79818047       1.28386491      -0.21682244      -0.48601500       1.14329400       0.69332400
O       -0.64319147       1.15391191       0.52359556      -0.25058200       0.85751600      -0.17029600
H       -0.63799147      -3.55641009       0.81996256       0.65669700       0.98498300      -0.60522000
H        2.04646353      -2.29158309      -0.16489344       0.29398500       1.15511900      -0.30806200
H        1.35864053       2.54615691      -0.32623744      -0.08849500      -0.68353600      -0.52201100
H        3.82721753      -0.84451009      -1.26043844      -0.13805100      -0.06734000       0.47886700
H        3.45619353       1.71530991      -1.19778044       0.88895100       0.16229200      -0.32646800
H       -2.43368447       1.67048791       1.61763056      -0.36661400       0.70540400       0.86193400
H       -2.17261747       3.30615991       0.62967556      -0.63853100      -2.15924200       0.46568200
H       -3.61990147       2.27141991       0.43788856      -2.43555400      -0.04305900      -0.60475900
21
Lattice="10.0 0.0 0.0 0.0 10.0 0.0 0.0 0.0 10.0" Properties=species:S:1:pos:R:3:forces:R:3 id=SCAN_9 energy=-136.60441315 stress="0.0072206645945335724 -0.0002532929233465944 -0.004440590324210029 -0.0002532929233465944 0.0019257489841908945 0.00040408778382793395 -0.004440590324210029 0.00040408778382793395 0.0007839148216835597" pbc="T T T"
C        2.01414836      -1.21391702      -0.26192668      -1.47681600       0.79759600       0.03931000
C        1.39188436       1.29709398      -1.02379968      -2.82449200       0.75743000       0.73975400
C        2.87654036      -0.54993702      -1.13818268      -0.33772400      -0.93757700       1.14949400
C        2.51489536       0.70905598      -1.51073268       1.92350000       1.55883400      -1.23428500
C       -2.99773364       1.88914198       0.49786632      -2.66776200       0.04521700       0.37773500
C        0.78313736      -0.61994902       0.24356532       0.55735900      -1.47292800      -0.59565400
C        0.42033036       0.69237498      -0.21191968       0.85916200      -1.44172100       1.36610900
O       -1.08078964      -0.89475602       1.68292232       1.22884600      -2.01353800      -0.53644700
O       -2.07697364       0.65738898      -1.29641868       0.10843600      -1.28617800      -1.24454800
O        0.16552436      -2.82090302       1.22705432      -1.38336700      -0.02405300       0.51406900
C       -0.12205064      -1.48084102       1.12289032      -1.24471500       2.36809200       0.30844300
C       -1.90012564       1.19118998      -0.23757168      -0.97976400       1.72828100       0.36062800
O       -0.71727364       1.41274098       0.35279432       2.80165500      -0.75314300      -0.53902900
H       -0.62297664      -3.26975902       1.70818532       1.41673100       1.05635700      -0.70503500
H        2.17320636      -2.24471202      -0.02048468       0.26927500      -0.58698700       0.42324100
H        1.08125336       2.27557898      -1.26687368       0.15880700       1.47206100      -0.70297200
H        3.84621936      -0.93216902      -1.41720268       0.15092100      -0.47773800      -0.23192300
H        3.23106936       1.30777198      -2.14655668      -0.85903100      -0.47274100       0.51426800
H       -3.61588064       2.54355798      -0.19724668       0.79472400      -0.75801700       0.23281100
H       -3.77146864       1.06485898       0.79639332       1.27397700       1.30809300      -0.06330400
H       -2.75699264       2.57840898       1.33930732       0.23027900      -0.86734400      -0.17266400
21
Lattice="10.0 0.0 0.0 0.0 10.0 0.0 0.0 0.0 10.0" Properties=species:S:1:pos:R:3:forces:R:3 id=SCAN_10 energy=-136.1218013 stress="0.0029910622448149006 -0.0013935042934812 -0.0014479739436227832 -0.0013935042934812 0.0035568675300944705 0.0017892971116808347 -0.0014479739436227832 0.0017892971116808347 0.0065750616150795855" pbc="T T T"
C        1.94713170      -1.04557808      -0.33334495      -0.88519500      -0.09911300      -0.28320500
C        0.95079870       1.14532992      -1.60147495      -0.24542200       1.55836500      -1.58963700
C        2.67148970      -0.49288408      -1.37732995       0.89445900       0.74841100      -0.13281600
C        2.17264370       0.65219592      -2.09106595      -1.20493600      -2.40986000       1.61506400
C       -3.25805630       1.31241792       0.62585305       0.58934000       0.42788300      -1.69197600
C        0.69967770      -0.55880208       0.09367305       1.08202400      -0.39279500       0.98095000
C        0.25133670       0.60095792      -0.56555595      -0.71629000       0.19007100       2.98909100
O        0.47788670      -2.39259708       1.79524505       0.45144000       0.20502900      -0.61316600
O       -2.12491430       0.10116892      -1.19359795      -0.20176800       1.32840500       1.80802200
O       -0.22437230      -0.25778408       2.33786805       0.26738000      -1.17042800      -0.30928800
C        0.35395870      -1.23819608       1.44498105      -2.20857300       2.03358600       0.85035300
C       -2.02501530       0.89984592      -0.23236495      -0.76690500      -0.50208000      -1.42817300
O       -0.79235430       1.38282092       0.13533005      -0.07566000      -0.88371200      -1.15530000
H       -0.53293230      -0.68849108       3.19662105       0.66105000       0.11644300      -1.24548900
H        2.21842570      -1.94720608       0.19237505       0.82027000      -0.28543600       0.06484900
H        0.50264770       2.03475992      -2.09839195       0.21095600      -0.50561700       0.26437200
H        3.70630970      -0.88021308      -1.42813695      -0.43055500       0.13054300      -0.85607900
H        2.41413470       0.87210392      -3.10886995       1.00110100       0.67008200      -0.37980300
H       -3.29261930       2.16710592       1.29587905       0.71842200       0.36939700      -0.05685900
H       -4.17093230       1.31726992       0.01321805       0.31176900       0.17899100      -0.34653600
H       -3.38621230       0.45152092       1.20073705      -0.27290700      -1.70816500       1.51562600
21
Lattice="10.0 0.0 0.0 0.0 10.0 0.0 0.0 0.0 10.0" Properties=species:S:1:pos:R:3:forces:R:3 id=SCAN_11 energy=-136.01222671 stress="0.0023759240714043505 -0.0038577894095806796 -0.0016324355043291368 -0.0038577894095806796 -0.0046277045262948825 -0.00021113152920125298 -0.0016324355043291368 -0.00021113152920125298 -0.0018446156070635383" pbc="T T T"
C        1.80503845      -1.27140311      -0.45853445       0.56901800       1.44584700      -0.73211000
C        1.01749445       1.17740489      -1.52622245       1.69080000      -1.01144000      -2.33490100
C        2.60127045      -0.73516811      -1.48344045      -2.20206300       1.69818700      -0.24412100
C        2.18578045       0.51402089      -2.09025945      -1.83501200      -0.24819000       0.01325200
C       -2.98073955       1.22660089       0.97092255      -1.29213600       0.89805200       0.13588600
C        0.75251945      -0.49221811       0.12372255       1.21065200      -2.37022700       0.68002300
C        0.28436545       0.61750589      -0.50155345       1.54987000       1.60595300      -0.67506700
O        0.20814445      -2.21511611       1.56298355      -0.09134200      -2.86033500       1.53954500
O       -2.20856255       0.08195889      -1.02430145      -1.99788800      -3.92846100      -4.40992200
O       -0.10898655      -0.04436011       2.33315855       0.72642200      -0.42824500      -0.99296600
C        0.29726345      -1.04573411       1.40986155      -1.36129100       2.86522800      -0.30548200
C       -2.03674855       0.85211989      -0.18778745       1.21916600       2.72661400       4.80937500
O       -0.73007655       1.37002589      -0.05400245      -1.73009400       1.46083700       1.79343200
H       -0.23278055      -0.41475111       3.22144055      -0.10861200      -0.54060500       0.15741500
H        2.04372745      -2.29158211      -0.18495145      -0.15235900      -0.03974100       0.80064500