12
Lattice="10.0 0.0 0.0 0.0 10.0 0.0 0.0 0.0 10.0" Properties=species:S:1:pos:R:3:forces:R:3 id=SCAN_0 energy=-75.60931067 stress="-0.0038312629957956757 -0.0028883769366758695 -0.003102385801584155 -0.0028883769366758695 0.0012033816839976698 0.0008914310578860246 -0.003102385801584155 0.0008914310578860246 0.0009825383665965424" pbc="T T T"
C       -0.50269972       0.98445406       0.88927568       0.97400000       1.31514200       1.38873600
C        0.84830030       0.75245406       0.81627568       2.65642800      -1.25569300      -1.39403200
C        1.36130031      -0.22054596      -0.17272434       0.88000300       2.22116300       2.71666200
C        0.47330030      -0.96854597      -0.88572435       0.77914100      -0.79813000      -0.80088000
C       -0.87769973      -0.78654597      -0.76472435      -1.19020500       0.96535600       0.61019900
C       -1.30869973       0.23245405       0.11227567      -2.98801600      -1.10955600      -1.26697800
H       -0.92769973       1.76745407       1.55727569       0.30551700      -0.54871600      -0.34086200
H        1.59730032       1.26145406       1.45227569      -0.43900900      -0.04019100      -0.30211300
H        2.47630033      -0.35454596      -0.27572434      -1.12890900       0.08664900       0.13553500
H        0.89330030      -1.71054599      -1.54572436      -0.04854100      -0.40668400      -0.45774900
H       -1.58369974      -1.37054598      -1.35772436      -0.03768900       0.05970900       0.12394000
H       -2.38169975       0.48145405       0.23327567       0.23728000      -0.48905000      -0.41245700
12
Lattice="10.0 0.0 0.0 0.0 10.0 0.0 0.0 0.0 10.0" Properties=species:S:1:pos:R:3:forces:R:3 id=SCAN_1 energy=-75.62558565 stress="-0.00010236074966448544 0.0007356055410492231 0.0018827637108409366 0.0007356055410492231 -0.0004888849268121838 -0.0013441277147863374 0.0018827637108409366 -0.0013441277147863374 -0.0014470751663086558" pbc="T T T"
C       -0.94012126      -0.39399824      -0.98743875       1.10370400       0.39528800       0.45469300
C       -1.32602127       0.17500177       0.21786127      -1.98599300      -0.23669200       0.02486300
C       -0.42952125       0.58000177       1.19526129       0.56786500      -1.30683100      -2.09991900
C        0.92207877       0.33100177       1.03066129       0.30965900       0.45522900      -0.96233400
C        1.34757878      -0.20299824      -0.19723873       1.26100400      -0.55507300      -0.82423200
C        0.43397876      -0.50899825      -1.23893875      -0.13499100       0.08955100       0.73264300
H       -1.64952127      -0.70399825      -1.72893876      -0.49425600      -0.05076400      -0.41628600
H       -2.42552129       0.29700177       0.39996128       0.81962600       0.03171200      -0.04242500
H       -0.82752126       1.07000178       1.99096130      -0.87241400       1.42917700       2.65084600
H        1.65287878       0.76600178       1.70776130       0.12098400      -0.36396300       0.31463700
H        2.45817880      -0.40799824      -0.35243874      -1.30889700       0.42565500       0.07455500
H        0.69657877      -0.78299825      -2.25743877       0.61371000      -0.31329000       0.09296000
12
Lattice="10.0 0.0 0.0 0.0 10.0 0.0 0.0 0.0 10.0" Properties=species:S:1:pos:R:3:forces:R:3 id=SCAN_2 energy=-75.62051526 stress="-0.002132168174002106 -0.0007508348233163784 0.0018539653877341113 -0.0007508348233163784 0.001711128451388273 -0.0018963639592262363 0.0018539653877341113 -0.0018963639592262363 0.002766367916283104" pbc="T T T"
C       -0.72183491      -0.51399929       1.05302357      -2.45798500       0.89076000      -1.30527100
C        0.59276511      -0.78979929       1.01482357       2.59040200      -0.43684400      -1.20709300
C        1.40566513      -0.27439928      -0.05717644      -2.16495100       1.31549600      -0.59326400
C        0.76176512       0.54150073      -1.07147646      -0.07129200      -0.56238600       1.55040500
C       -0.63653491       0.80880074      -0.95707646       1.00418800      -0.18672300      -1.71199400
C       -1.38703492       0.22850073       0.02472356       0.82873500      -0.30683600       1.79480700
H       -1.35523492      -0.88439929       1.82362359      -0.40530300      -0.53338900       0.82231600
H        0.99476512      -1.53849930       1.71212359       0.22264700       0.50726300       0.05572800
H        2.47226515      -0.37419928      -0.03957644       0.62309800      -0.37143900      -0.17116300
H        1.26466513       1.01830074      -1.92897648       0.26561200      -0.35884900       0.47772900
H       -1.11003492       1.36940075      -1.78307647       0.10452600      -0.05014400       0.41232000
H       -2.44253494       0.40220073       0.13442356      -0.53967600       0.09309100      -0.12452000
12
Lattice="10.0 0.0 0.0 0.0 10.0 0.0 0.0 0.0 10.0" Properties=species:S:1:pos:R:3:forces:R:3 id=SCAN_3 energy=-75.80900077 stress="-0.0006132220301089043 0.0007018639427146982 0.0003840150904790934 0.0007018639427146982 0.001199898921905427 -0.00025000364803725396 0.0003840150904790934 -0.00025000364803725396 7.987883379305395e-05" pbc="T T T"
C       -1.06755868      -0.86576716       0.22696590      -0.75729500      -0.43372100       0.26768200
C        0.16744134      -1.36446716      -0.15023411       0.68190400      -0.64537200       0.30517200
C        1.25984136      -0.52326715      -0.32583411      -1.12524400       0.79743600      -0.63104000
C        1.06024136       0.86103287      -0.26233411       0.49829400       0.29863700       0.60771600
C       -0.17365867       1.38723288       0.13386590       0.02716400      -0.05084000      -0.26605400
C       -1.25355868       0.49303287       0.38336590      -0.08085400       2.45261800       0.09323900
H       -1.88215870      -1.57126717       0.41746590      -0.02059500       0.14079600      -0.04116900
H        0.32204134      -2.44376718      -0.22443411      -0.12681600       0.00490300      -0.10673200
H        2.17314138      -0.89426716      -0.71683412       1.05789100      -0.50082800      -0.06189800
H        1.92064137       1.53623289      -0.40943411      -0.33080300      -0.18485300      -0.12112500
H       -0.24585867       2.50223290       0.18256590      -0.33833700      -0.88873400       0.14768900
H       -2.20145870       1.01613288       0.68166591       0.51469200      -0.99004200      -0.19348200
12
Lattice="10.0 0.0 0.0 0.0 10.0 0.0 0.0 0.0 10.0" Properties=species:S:1:pos:R:3:forces:R:3 id=SCAN_4 energy=-75.71674883 stress="-0.0032066314870046572 0.003417157589820699 -0.00019431690361612348 0.003417157589820699 0.0031104872804295514 0.00013413003111523123 -0.00019431690361612348 0.00013413003111523123 0.0002656573529249691" pbc="T T T"
C       -0.76661920      -1.17928740      -0.03133638      -1.96466500      -0.72982800      -0.22895700
C       -1.36261921       0.08371263      -0.01933638      -0.10192800       0.11400600       0.17274700
C       -0.59961919       1.26171265      -0.01433638      -0.62152200      -0.20362600      -0.43668600
C        0.80238083       1.20671265       0.01466362      -1.27819700      -1.21792700       0.61992000
C        1.35238084      -0.07828738       0.06966362      -0.36138500      -0.46841100      -0.45290000
C        0.59238083      -1.28828740      -0.04333638       1.58399500       0.91520200       0.58805400
H       -1.46861921      -2.06828741      -0.04933638       0.95910600       0.76122300       0.04774100
H       -2.45261923       0.08171263       0.05866362       0.01830800       0.44110100      -0.21101800
H       -1.14461920       2.19771266      -0.10833638       0.08516300       0.28690300       0.25208800
H        1.37238084       2.10371266       0.20066362       0.40515400       0.22088300      -0.28183200
H        2.40738086      -0.11528738       0.18166362       1.14206900      -0.38546700       0.04877500
H        1.06838083      -2.27428741       0.00266362       0.13390200       0.26594100      -0.11793100
12
Lattice="10.0 0.0 0.0 0.0 10.0 0.0 0.0 0.0 10.0" Properties=species:S:1:pos:R:3:forces:R:3 id=SCAN_5 energy=-75.71910216 stress="0.003175923262105311 -0.00022491278135120324 -0.0009775701253323394 -0.00022491278135120324 -0.0012392204293984915 9.496456135031377e-05 -0.0009775701253323394 9.496456135031377e-05 0.0006918088715129004" pbc="T T T"
C        1.02043064      -0.93465497      -0.31020894      -0.62829500      -0.12526300      -0.09944200
C        1.32943065       0.43434505      -0.29220894      -0.92625700      -0.18945000      -0.24536100
C        0.27543063       1.35434507      -0.04420893       0.69757500      -0.23829000       0.08315400
C       -1.01756940       0.91734506       0.32979107       2.16860500       0.42616200      -0.85052700
C       -1.28656940      -0.43465496       0.40079107       0.02169300      -0.05265700      -0.96198900
C       -0.32556938      -1.33765498      -0.04420893       1.49275700      -0.76154800       0.77938500
H        1.81043065      -1.67265499      -0.58820894      -0.68644300       0.40001500       0.21652800
H        2.32943066       0.74134506      -0.61620894      -0.15097900       0.23435700       0.24953700
H        0.51143063       2.42134509      -0.17020894      -0.28691300      -0.18761300       0.14085400
H       -1.76256941       1.66334507       0.35079107      -1.12099000       0.77137500       0.55465400
H       -2.30456942      -0.72665497       0.58179108      -0.45944200      -0.46276800       0.26555100
H       -0.53156939      -2.41565500      -0.03120893      -0.12131200       0.18568100      -0.13234500
12
Lattice="10.0 0.0 0.0 0.0 10.0 0.0 0.0 0.0 10.0" Properties=species:S:1:pos:R:3:forces:R:3 id=SCAN_6 energy=-75.49704721 stress="0.0012103284836547778 -0.0010126910971836845 -0.0003444002320571123 -0.0010126910971836845 0.002339554797727829 0.0014081718399270252 -0.0003444002320571123 0.0014081718399270252 0.0014785885458852403" pbc="T T T"
C       -0.49893817      -1.13811776      -0.70259818       2.88812200      -0.97826000       0.77926200
C       -1.35593819      -0.26511775      -0.04059817      -1.65028400       0.45451200      -0.12446300
C       -0.92193818       0.95588227       0.50040184       0.84711700       0.29414500      -0.29661400
C        0.45706185       1.19888228       0.55140184      -0.57351400      -1.14489700      -0.07931500
C        1.36906186       0.20688226       0.20640183      -1.02992200      -1.54324200      -1.47268800
C        0.93806185      -0.97111776      -0.50059818      -1.58522900       1.84008900       0.32203700
H       -0.71493817      -2.09811778      -1.21959819      -0.71023400       0.76338800       0.29719400
H       -2.45293820      -0.42411775       0.03240183       0.52961200      -0.24340300      -0.42354100
H       -1.58993819       1.78288229       0.80240184      -0.04164600      -0.68522500      -0.02358700
H        0.85306185       2.13288230       0.84040184       0.29912400       1.20435400       0.67335800
H        2.40106188       0.38488226       0.37740184       1.11992400       0.11152900       0.03061900
H        1.65406187      -1.62711777      -1.00459819      -0.09307100      -0.07298900       0.31773800
12
Lattice="10.0 0.0 0.0 0.0 10.0 0.0 0.0 0.0 10.0" Properties=species:S:1:pos:R:3:forces:R:3 id=SCAN_7 energy=-75.59711628 stress="0.004291636708920825 0.0021731436814135295 -0.0011164312203649903 0.0021731436814135295 0.0043940661151856955 -0.0006175099468783861 -0.0011164312203649903 -0.0006175099468783861 0.0005062051146365099" pbc="T T T"
C        0.07901171      -1.40021834      -0.07193423      -2.86565100      -0.75603200       1.12500700
C        1.17301173      -0.61821833      -0.33693424       2.00930100      -0.92330000      -0.86496100
C        1.17401173       0.75478169      -0.29893424      -1.51274500       1.95311800       0.33804500
C       -0.03698829       1.42678171       0.06506577      -0.36197500      -0.88812500      -0.42834000
C       -1.21998831       0.63178169       0.32206577       1.76240700      -0.31693700       0.29112600
C       -1.16998831      -0.79521833       0.32206577       1.48747300       0.79076400      -0.69365900
H       -0.01198829      -2.51521836      -0.06093423       0.89896400       0.76458600      -0.27408200
H        2.14501175      -1.04121834      -0.66093424      -0.53293300      -0.31036600       0.21368200
H        2.07201175       1.32178170      -0.60293424      -0.36112200      -0.20550100       0.29309800
H       -0.10798829       2.54778173       0.07806577       0.07762700      -1.01188800       0.05328800
H       -2.08398833       1.17078170       0.65106578      -0.79795500       0.19786600       0.07854400
H       -2.00198832      -1.48021834       0.57906578       0.19660800       0.70581600      -0.13175000
12
Lattice="10.0 0.0 0.0 0.0 10.0 0.0 0.0 0.0 10.0" Properties=species:S:1:pos:R:3:forces:R:3 id=SCAN_8 energy=-75.52885137 stress="0.007974913523341808 -0.0008280298081853024 -0.0019115932414933913 -0.0008280298081853024 0.005513774127841774 -0.00033312806657576717 -0.0019115932414933913 -0.00033312806657576717 0.0009218334488382019" pbc="T T T"
C       -1.00596293       1.01111502       0.12641993       2.16777600      -1.15750000      -0.00294900
C       -1.34856294      -0.35388500       0.39131993       0.84642900      -0.10419600      -0.85451700
C       -0.34686292      -1.36508502       0.21861993       0.68258300       2.15915400       0.36532000
C        1.00833710      -1.00658501      -0.10558008      -1.39369200       0.27607500      -0.16117600
C        1.35483711       0.34191501      -0.37218008      -1.01476600       0.25939000      -0.63541900
C        0.33813709       1.38401503      -0.25158008      -0.37303100      -2.94275900       0.75371600
H       -1.65816294       1.84501504       0.25651993      -0.94696600       0.34306700       0.14319700
H       -2.38076295      -0.69528501       0.63141993       0.59763400       0.49885400      -0.04836300
H       -0.58876292      -2.38408503       0.44141993      -0.16947600      -0.69349200       0.01331500
H        1.75093712      -1.81138502      -0.22788008      -0.17873200       0.32465900       0.03167700
H        2.34613713       0.47291502      -0.87958009      -0.65439300       0.47220500       0.83155000
H        0.53153710       2.43601505      -0.30548008       0.43663500       0.56454400      -0.43635000
12
Lattice="10.0 0.0 0.0 0.0 10.0 0.0 0.0 0.0 10.0" Properties=species:S:1:pos:R:3:forces:R:3 id=SCAN_9 energy=-75.72745136 stress="-0.000764591109429825 0.0010881821500612426 0.00017751476104924574 0.0010881821500612426 -0.000677715543906656 0.0005579222592535785 0.00017751476104924574 0.0005579222592535785 5.357711433658188e-05" pbc="T T T"
C       -1.13386728       0.79801686       0.10845653       0.91513700      -0.91424200      -0.23184100
C       -1.22286728      -0.58098317       0.40445654       0.61613100       0.95968200       0.72084800
C       -0.03986726      -1.32798318       0.40645654      -0.37983700      -1.83460900      -0.31196500
C        1.16313276      -0.76098317      -0.02154347       0.44551400      -1.11910100      -0.29335800
C        1.17713276       0.53001685      -0.48854348      -0.09032100       0.91104300      -0.13332600
C        0.06013274       1.35601687      -0.37054348      -0.44274900      -1.14401700      -0.05196100
H       -2.00086729       1.39001687       0.18045653      -1.19328600       0.85410200       0.08268900
H       -2.16486730      -0.97698317       0.79145654       0.06474800      -0.16738200      -0.25849200
H       -0.09586726      -2.45698320       0.54545654       0.13727300       1.35119400       0.22530800
H        2.08813278      -1.36198318      -0.14154347      -0.58152900       0.11035600       0.20996500
H        2.02413278       0.90101686      -1.04054349       0.62883700       0.21522100       0.05576500
H        0.10413274       2.33701688      -0.79654348      -0.11991900       0.77775100      -0.01363300
12
Lattice="10.0 0.0 0.0 0.0 10.0 0.0 0.0 0.0 10.0" Properties=species:S:1:pos:R:3:forces:R:3 id=SCAN_10 energy=-75.56778996 stress="0.005470651541291047 -0.0004645929732942462 -0.0026164219010428843 -0.0004645929732942462 0.0013194175801569655 0.0014677969766065883 -0.0026164219010428843 0.0014677969766065883 0.003509538166392897" pbc="T T T"
C       -0.93539880       0.57955134       0.94363460       1.93492900       0.62916700      -0.39856300
C       -1.36339880      -0.42644868       0.08963459       1.11175700      -0.97209300      -0.67582500
C       -0.41039879      -1.01944869      -0.83936543      -1.02507600       0.71730500      -0.77343700
C        0.89160124      -0.52044868      -1.02236543      -0.47403800      -0.78251300       0.96318300
C        1.34660124       0.38255134      -0.01036541       0.68370700       0.23901100      -1.78440100
C        0.48060123       0.99355135       0.86563460      -2.88113800      -1.42670800       0.07086800
H       -1.61939881       1.10955135       1.62463461       0.22799800      -0.24271200      -0.17499700
H       -2.39139882      -0.82344868       0.11363459       0.32406600       0.20696100      -0.00631800
H       -0.77739879      -1.73644870      -1.61136544       0.05126700       0.29347400       0.70006600
H        1.50260125      -0.94444869      -1.88036545      -0.39587600       0.66012300       1.22817700
H        2.37660126       0.75355134      -0.08136542      -0.06835400      -0.07320000       0.14582400
H        0.79460123       1.76855136       1.51563461       0.51076000       0.75118500       0.70542400
12
Lattice="10.0 0.0 0.0 0.0 10.0 0.0 0.0 0.0 10.0" Properties=species:S:1:pos:R:3:forces:R:3 id=SCAN_11 energy=-75.71657052 stress="0.0030944778095216606 -0.00021205527255188368 -2.894187781672067e-05 -0.00021205527255188368 0.00042245030367628247 0.0002934820006081567 -2.894187781672067e-05 0.0002934820006081567 0.0018993973326614155" pbc="T T T"
C       -0.93299414      -0.19927302      -1.07192572       0.84215400       0.50911200       1.76110700
C       -1.37029414       0.19072698       0.24197430       0.59659800      -0.00203900      -0.41221000
C       -0.42629413       0.33672699       1.31047432      -1.44251100       0.17592600      -0.33697000
C        0.93550590       0.21472698       1.02807431      -0.33336100      -0.27093000       1.61463000
C        1.32860590      -0.16027302      -0.23062571       2.32981600       0.28664300      -1.12889900
C        0.46180589      -0.40727303      -1.27802573      -2.00357100       0.51524000       0.85904100
H       -1.63299415      -0.22827302      -1.89242574      -0.27905200      -0.23413800      -0.25533200
H       -2.43599416       0.44872699       0.42537430       0.57628500      -0.33701300      -0.12366300
H       -0.83349414       0.59172699       2.32637433       0.57357900      -0.17570200      -0.83647000
H        1.68920591       0.29172698       1.83707433      -0.37096100       0.23340500      -0.41595300
H        2.42800592      -0.10527302      -0.46902571      -0.86053000      -0.48122800       0.28353300
H        0.82890589      -0.70527303      -2.22672574       0.37155300      -0.21927600      -1.00881300
12
Lattice="10.0 0.0 0.0 0.0 10.0 0.0 0.0 0.0 10.0" Properties=species:S:1:pos:R:3:forces:R:3 id=SCAN_12 energy=-75.65232723 stress="0.005257641317842903 -0.000604365328659276 -0.00030885483758520715 -0.000604365328659276 0.0003574387446210824 0.0005485100634917466 -0.00030885483758520715 0.0005485100634917466 -0.0008243285932736537" pbc="T T T"
C       -0.70880667      -0.15437385       1.17632557      -1.22913000      -0.30718900      -0.08018500
C        0.67349335      -0.34427385       1.19112557      -0.64869800       0.02384800      -0.35202600
C        1.39349337      -0.20017385      -0.00227445       0.14428100      -0.02592700       0.31563800
C        0.73399336       0.15382616      -1.17967447      -0.32415100       0.34831700       0.40657000
C       -0.66860667       0.44222616      -1.15907447       0.70151000      -1.36212600      -0.54648500
C       -1.41840668       0.11822616      -0.04367445       0.19002900       0.73090000       2.44830700
H       -1.33130668      -0.23027385       2.10802559       0.69576100      -0.17663700      -0.67733200
H        1.15299336      -0.70407386       2.08802559       0.29049900       0.18018300       0.42665700
H        2.48979339      -0.32897385       0.03432555      -0.42192800      -0.13858900      -0.26924500
H        1.37039337       0.15872616      -2.06557448      -0.42244000       0.44356700      -0.31166500
H       -1.21150668       0.70642617      -2.04907448       0.02806100       0.21723100      -0.66936100
H       -2.53180670       0.21412616       0.08962555       0.99620700       0.06642100      -0.69087300
12
Lattice="10.0 0.0 0.0 0.0 10.0 0.0 0.0 0.0 10.0" Properties=species:S:1:pos:R:3:forces:R:3 id=SCAN_13 energy=-75.44223281 stress="0.005912887428896379 -0.0007197833154151091 -0.0030320752012810794 -0.0007197833154151091 -0.001081204142858505 -0.001710061153327747 -0.0030320752012810794 -0.001710061153327747 -0.0005983859629166798" pbc="T T T"
C        0.98283159       0.73521977       0.62512313      -0.12817200       0.80552100       3.09342500
C       -0.35816844       0.67821977       1.15112314       1.31848300       0.86865700       0.28874000
C       -1.34016845      -0.04478024       0.49612312      -0.37783300       0.58150100       1.63145900
C       -1.01316845      -0.70978025      -0.64287690       3.35100100       0.17783100      -0.83503800
C        0.35783158      -0.68478025      -1.16387691      -1.97875700       0.36233400       0.77182500
C        1.39083159      -0.00478024      -0.46987689      -1.46012500       0.16477800      -1.57888200
H        1.72583160       1.30421978       1.28712314      -0.80160100      -0.58616800      -1.15675100
H       -0.67416844       1.24521978       2.06912315       0.69337300      -0.39903400      -0.75458700
H       -2.32716847      -0.05278024       0.99412313       0.15461200      -0.19896600      -0.63405600
H       -1.75916846      -1.22978026      -1.13987690      -1.31052000      -1.14227900      -1.30942000
H        0.45383158      -1.07378026      -2.17487692       0.48061000      -0.31932500       0.03561000
H        2.34283161       0.17221976      -0.98487690       0.05892800      -0.31485000       0.44767600
12
Lattice="10.0 0.0 0.0 0.0 10.0 0.0 0.0 0.0 10.0" Properties=species:S:1:pos:R:3:forces:R:3 id=SCAN_14 energy=-75.70893583 stress="0.004108092650055976 -0.0015721924582461117 0.002586955736459589 -0.0015721924582461117 -0.0005720093453506971 0.0005855659031721156 0.002586955736459589 0.0005855659031721156 0.000102597927011269" pbc="T T T"
C        0.72136785       0.76930599      -0.89937052      -1.55814200       0.64499400      -0.35524600
C        1.40376786       0.10830598       0.11452949      -0.41578600      -0.02270600      -0.52192300
C        0.71146785      -0.70299404       0.97992951      -0.95286900      -1.51879700       2.59807600
C       -0.71023217      -0.79949404       0.90082951       0.85675900      -0.03948000      -0.65206800
C       -1.39373219      -0.09799403      -0.11607051       0.14417900      -0.34021000       1.23071400
C       -0.73273218       0.72250599      -0.99487053       2.56669800       0.13858800      -0.38640900
H        1.30026786       1.39310600      -1.57927054      -0.12911000       0.09074100      -0.16872200
H        2.46596788       0.16970598       0.24312950       0.69669100       0.24151500      -0.20816100
H        1.28646786      -1.23759405       1.84742952      -1.07641300       0.80733500      -1.55883800
H       -1.32133219      -1.45769405       1.52662952       0.39139800       0.09470000       0.21604600
H       -2.46593221      -0.15299403      -0.09537051      -0.66667300      -0.05824000      -0.25213100
H       -1.26433218       1.28980600      -1.76367054       0.14326700      -0.03843900       0.05866200
12
Lattice="10.0 0.0 0.0 0.0 10.0 0.0 0.0 0.0 10.0" Properties=species:S:1:pos:R:3:forces:R:3 id=SCAN_15 energy=-75.71434359 stress="0.0025856637440705315 -0.002869433956478814 0.0015480939915110763 -0.002869433956478814 0.0008762080171279954 0.0001610808675207951 0.0015480939915110763 0.0001610808675207951 -0.00011072437189316902" pbc="T T T"
C        0.22626804      -1.18355051       0.71414788      -1.59286900       0.51941300      -0.34510200
C        1.29656805      -0.58295050       0.05754787       0.06642000       0.22354300      -0.01585400
C        1.07706805       0.61764952      -0.63505214      -1.08982500      -0.29182800      -0.16530300
C       -0.19683197       1.17444953      -0.73515214      -1.58472600       0.67924600       0.15295300
C       -1.27443199       0.60634952      -0.01485213       0.16047200      -0.78217200      -0.47071000
C       -1.10603199      -0.62055050       0.64484788       2.35242600       0.65681000      -0.25426200
H        0.36996804      -2.11775053       1.22584789       0.05098500      -0.51358500       0.27654800
H        2.29356807      -1.06365051       0.02084787      -0.46081500       0.27495900       0.20363900
H        1.82686806       1.07414953      -1.21325215       1.33101200       0.48155100      -0.67396100
H       -0.53313198       2.03804955      -1.39685216       1.15563800      -0.77922800       0.74892900
H       -2.27963201       1.03354953      -0.10255213       0.15200100       0.02234500       0.03402200
H       -1.94683200      -1.10005051       1.09104789      -0.54071800      -0.49105500       0.50910100
12
Lattice="10.0 0.0 0.0 0.0 10.0 0.0 0.0 0.0 10.0" Properties=species:S:1:pos:R:3:forces:R:3 id=SCAN_16 energy=-75.67731388 stress="0.0024608772521167474 -0.0006691147443311889 0.0029227614104503606 -0.0006691147443311889 0.00012559788814014882 4.8814842873532956e-05 0.0029227614104503606 4.8814842873532956e-05 0.0017155474398493982" pbc="T T T"
C       -1.14092944      -0.34531112       0.73374055       0.84030600       0.26301200      -1.29091900
C       -1.19292944      -0.08131112      -0.67725948      -2.76313900       0.08739300       1.79322700
C       -0.10592942       0.31868889      -1.39925949       0.60387100       0.05326700      -0.46212300
C        1.13207060       0.30568889      -0.70325948       0.54734900       0.80195800      -1.50658800
C        1.23007060       0.05068888       0.64674055       0.91113800      -0.18690500       0.69639700
C        0.08307058      -0.25131112       1.39674056       0.08208500      -0.66997700       0.14827200
H       -2.06192945      -0.61531113       1.22174056      -0.28150200      -0.12235700       0.39396800
H       -2.25792946      -0.05731112      -1.06125948       1.24339900      -0.12886000      -0.13582500
H       -0.29992942       0.62668889      -2.46025951       0.77564900      -0.29348900       0.79870700
H        2.08107062       0.56468889      -1.20825949      -0.48674800      -0.07520100      -0.09225900
H        2.27207062       0.06768888       1.09174055      -1.25685800      -0.03202700      -0.22275100
H        0.20207058      -0.55231113       2.44674058      -0.21554900       0.30318600      -0.12010600
12
Lattice="10.0 0.0 0.0 0.0 10.0 0.0 0.0 0.0 10.0" Properties=species:S:1:pos:R:3:forces:R:3 id=SCAN_17 energy=-75.57402129 stress="0.00044440169127201384 -0.0012057659404837574 0.0009754480122295392 -0.0012057659404837574 0.0009767836951824782 0.0001427870042728313 0.0009754480122295392 0.0001427870042728313 -0.00021752283454615744" pbc="T T T"
C       -0.78531657      -0.77127886       0.80167642      -0.53076600       0.64627400       1.15977800
C        0.59998345      -0.99427886       0.80827642      -0.64569000      -1.47656600      -0.50452000
C        1.37498346      -0.37137885      -0.14252360      -1.59949900       3.34046200      -0.92903800
C        0.78028345       0.78812117      -0.87012361       0.26286200      -2.28645000       1.00676200
C       -0.57581657       1.06702118      -0.72802361      -0.14352700      -0.04429500       0.31533800
C       -1.37041659       0.27482116       0.13457641      -0.04454100       0.74561700      -1.26393400
H       -1.50841659      -1.22477886       1.46467643       0.32972600      -0.91496200       0.47835200
H        0.95458346      -1.85067887       1.39187643       0.26442100       0.23156200       0.01297300
H        2.41078348      -0.54307885      -0.28152360       1.08205300      -0.38239000      -0.04054000
H        1.36058346       1.36012118      -1.57862362       0.39117100       0.11191300      -0.14361900
H       -1.03991658       1.89662119      -1.26712362       0.12990200       0.01668600      -0.03277500
H       -2.45981660       0.44482117       0.22477641       0.50388600       0.01214800      -0.05877600
12
Lattice="10.0 0.0 0.0 0.0 10.0 0.0 0.0 0.0 10.0" Properties=species:S:1:pos:R:3:forces:R:3 id=SCAN_18 energy=-75.59745087 stress="-3.9165469764917445e-05 -0.003331187043120783 0.001306135648737086 -0.003331187043120783 0.003654715668660942 -0.00037331714383732943 0.001306135648737086 -0.00037331714383732943 0.00034562980935491135" pbc="T T T"
C       -1.37143939       0.27200057       0.23906898       0.26158100      -0.35801000       0.11093900
C       -0.80843938      -0.97199946       0.55406898       0.15067200      -0.23918500      -0.04979100
C        0.54156064      -1.27199946       0.33306898       1.00968800       0.88771200      -0.26143400
C        1.34656066      -0.31399945      -0.29793103      -1.07602000       1.93098900       0.50906900
C        0.79856065       1.00200058      -0.59793104       0.69961200      -1.85566600       1.09387900
C       -0.52043937       1.26300058      -0.27993103      -1.57642200       1.00690500      -0.73734400