12
Lattice="10.0 0.0 0.0 0.0 10.0 0.0 0.0 0.0 10.0" Properties=species:S:1:pos:R:3:forces:R:3 id=SCAN_0 energy=-75.61327973 stress="0.0003311619912011139 0.00021452691016573348 7.86305319678773e-05 0.00021452691016573348 0.0004986528885941912 0.0004297091787896847 7.86305319678773e-05 0.0004297091787896847 0.0009731386538529622" pbc="T T T"
C       -0.71831455       0.11239065       1.20587819       0.35054700       1.16159900       0.30419800
C        0.69068548       0.10649065       1.22687819      -0.57051500      -1.75819400      -1.09040500
C        1.36308549      -0.19740936       0.01567817       1.47778500       1.59665100       2.06398500
C        0.71788548      -0.11880935      -1.17442185      -0.31610500      -0.80647500      -1.28210500
C       -0.66761455      -0.01520935      -1.22522185       0.07677500       0.13776900       0.26570300
C       -1.40111456       0.10579065      -0.04882183      -1.26329800       0.06946900       0.79732400
H       -1.16001455       0.32309065       2.21037821      -0.39706600      -0.33977300      -0.96642600
H        1.25898549       0.04699065       2.15177821      -0.10130500       0.31049900       0.20791700
H        2.46318551      -0.19950936       0.07837817      -0.23157100      -0.35296900      -0.25497300
H        1.25128549      -0.26860936      -2.11182187       0.16512600       0.08785900      -0.05966000
H       -1.09181455      -0.03070935      -2.21512187      -0.66153000       0.08735400      -0.24215300
H       -2.53841458       0.20919065      -0.11322183       1.47115800      -0.19379000       0.25659400
12
Lattice="10.0 0.0 0.0 0.0 10.0 0.0 0.0 0.0 10.0" Properties=species:S:1:pos:R:3:forces:R:3 id=SCAN_1 energy=-75.49774741 stress="-0.00013958511009125318 -0.0002556397307779265 0.0005661111192267374 -0.0002556397307779265 -0.00011983697521695856 0.00019432314512524937 0.0005661111192267374 0.00019432314512524937 0.0005899412010693597" pbc="T T T"
C       -0.43626527       1.31068244      -0.10244274      -1.69266800      -0.00605300      -1.17857900
C        0.91213475       1.04238244      -0.19314274       1.07881000       0.58016300       1.59762200
C        1.36763476      -0.23191758       0.12895727      -1.48560100      -0.94720200      -1.30646800
C        0.46433474      -1.32421760       0.11375727       0.29635000       0.64853800       1.34858200
C       -0.93506528      -1.06711760       0.07505727       0.67363400      -0.12568000      -0.50681200
C       -1.37696529       0.27908242      -0.03864273       1.76054300      -1.93746500       0.52731700
H       -0.89266528       2.27618246      -0.30424274       0.45951300       0.51332700       0.21671100
H        1.63573477       1.86328245      -0.17444274      -0.09124000       0.04399900      -0.37060800
H        2.39183478      -0.50701759       0.21055727       1.06937600       0.21810400       0.11560100
H        1.00073475      -2.25441762       0.40925727      -1.10226900      -0.01314100      -0.53905600
H       -1.66556529      -1.89921761       0.03925727       0.33938600       0.39465000       0.22676400
H       -2.42016531       0.41528243       0.01555727      -1.30583500       0.63076000      -0.13107600
12
Lattice="10.0 0.0 0.0 0.0 10.0 0.0 0.0 0.0 10.0" Properties=species:S:1:pos:R:3:forces:R:3 id=SCAN_2 energy=-75.47966837 stress="0.007963260625803784 -0.0004718081578437673 0.0007723305807459201 -0.0004718081578437673 0.0033682616073285303 -0.001026516039897516 0.0007723305807459201 -0.001026516039897516 0.0007603344002059726" pbc="T T T"
C        1.38299401      -0.24600843       0.14919346       0.39550700       1.48751100      -0.05833400
C        0.45099399      -1.25400844       0.41519346      -0.53508500      -0.55372300       0.37945600
C       -0.94700603      -1.02200844       0.37919346      -0.49893100       0.72073800      -1.12987200
C       -1.38000604       0.29499158      -0.10880655      -2.00067100      -2.41915400       0.48255700
C       -0.46000602       1.22099160      -0.48280655       1.83676700       2.20546000      -0.86632700
C        0.94799400       0.99899160      -0.31880655      -0.90085200      -0.29115300      -0.13790500
H        2.48099403      -0.25700843       0.33819346      -0.68292000      -0.89706000      -0.18809000
H        0.86699400      -2.24500846       0.61619347      -0.31977400      -0.06761700       0.30861200
H       -1.73300605      -1.85400845       0.53519347       1.37183400       1.28810800      -0.07912400
H       -2.50100606       0.50799159      -0.30580655       1.71173100      -0.42653700       0.51899400
H       -0.77100603       2.19999162      -0.96180656       0.15917200      -1.02775900       0.60177300
H        1.71699401       1.73199161      -0.61680655      -0.53677800      -0.01881400       0.16825800
12
Lattice="10.0 0.0 0.0 0.0 10.0 0.0 0.0 0.0 10.0" Properties=species:S:1:pos:R:3:forces:R:3 id=SCAN_3 energy=-75.60899683 stress="-1.9954104675448775e-05 -0.00019929138638945243 -0.0007191217154477656 -0.00019929138638945243 -0.0002991368078762069 0.0012090739403204753 -0.0007191217154477656 0.0012090739403204753 -0.002116751646461174" pbc="T T T"
C        1.15792704       0.42149204      -0.63498177       1.31135800       0.19124100      -0.70807100
C        1.24312704      -0.07640797       0.64581825       1.22584600      -0.74408400      -0.12722300
C        0.07412702      -0.58300798       1.23221826       0.83913100      -0.49325100       0.97795800
C       -1.17337300      -0.52390798       0.61311825       1.63451200       1.44009300      -1.16179800
C       -1.25567300       0.18849203      -0.61608177       0.41894200      -0.67035900       1.17462600
C       -0.08147298       0.59779204      -1.21838178       0.17911200       0.36342500      -0.78201000
H        2.10852706       0.59319204      -1.21798178      -0.99118500       0.17318000       0.53637900
H        2.31232706      -0.23540798       0.98671826      -1.42486700       0.07178800       0.41960400
H        0.21902702      -1.09870799       2.19511828      -0.38766100       0.07783800      -0.19753100
H       -1.97287301      -1.01460799       1.07611826      -1.50520300      -0.49565100       0.59350900
H       -2.17817302       0.42929204      -1.09188178      -0.89877300      -0.14299600      -0.34915000
H       -0.06807298       1.03509205      -2.20658180      -0.40121200       0.22877600      -0.37629400
12
Lattice="10.0 0.0 0.0 0.0 10.0 0.0 0.0 0.0 10.0" Properties=species:S:1:pos:R:3:forces:R:3 id=SCAN_4 energy=-75.6620916 stress="0.0001938987225046893 0.0007407173370233216 -0.0015911104724066639 0.0007407173370233216 0.0003375782625825219 0.0006168857959657977 -0.0015911104724066639 0.0006168857959657977 -0.0020483634309688714" pbc="T T T"
C        0.04653032       0.51808382      -1.29503636       0.10654300      -1.40231600       0.76440000
C       -1.16846970       0.38008382      -0.60903634       0.28080100       1.51814300      -0.70928900
C       -1.23146970      -0.01391618       0.69496368       1.28911600      -1.59442300       1.37540000
C       -0.07246968      -0.57191619       1.28696369       1.20389000       0.61459700      -0.57580300
C        1.17853034      -0.41291619       0.61296368      -0.93758600      -0.36076300      -0.05734400
C        1.24053034       0.11708382      -0.68903634      -0.45238300       0.31549600       0.57311400
H        0.05553032       0.64908383      -2.34603637      -0.11172100       0.82846000      -1.10684900
H       -2.04646972       0.81908383      -1.03903635      -0.68837400      -0.02099400      -0.55806900
H       -2.13646972      -0.04291619       1.26896369      -0.72613500       0.06691600       0.10310200
H       -0.05746968      -1.09391620       2.25696371      -0.25757400       0.36717400      -0.21570900
H        2.08353035      -0.80291620       1.05796369       0.26514900      -0.06839100       0.28457300
H        2.18253036       0.27508382      -1.22003635       0.02827400      -0.26389900       0.12247200
12
Lattice="10.0 0.0 0.0 0.0 10.0 0.0 0.0 0.0 10.0" Properties=species:S:1:pos:R:3:forces:R:3 id=SCAN_5 energy=-75.79068376 stress="-0.0018517558935035486 -0.0002189833476816141 0.0008200094689585426 -0.0002189833476816141 0.00016040678453519973 0.00039955644820254265 0.0008200094689585426 0.00039955644820254265 -0.0007276351338954703" pbc="T T T"
C       -0.66861876       0.81306443      -0.87262167      -0.75360700       1.33393500      -2.04954400
C       -1.38961878       0.18896441       0.11637835      -0.78984900       0.36396800       0.64364500
C       -0.68211876      -0.59083560       1.01517836      -0.38471200      -1.03964400       1.87179800
C        0.69048126      -0.78853560       0.93507836      -0.38763300       0.58532400      -1.13656400
C        1.35818127      -0.22113559      -0.14882166       0.69432800      -0.26744400       0.35293300
C        0.68458126       0.56546442      -1.06332167       0.42016300       1.14908000      -0.65359400
H       -1.16631877       1.54876444      -1.58102168       0.40251800      -0.87191600       0.79829600
H       -2.46191880       0.43106442       0.27747835       0.58251000      -0.31920200      -0.14170900
H       -1.16421877      -1.04733561       1.90447838      -0.14408500       0.26196700      -0.53163300
H        1.24438127      -1.32933561       1.67247837       0.19957100      -0.46758700       0.53557300
H        2.42908129      -0.36733560      -0.19552166       0.38050200       0.03112300      -0.28247100
H        1.20368127       1.15726443      -1.86202169      -0.21970500      -0.75960400       0.59327000
12
Lattice="10.0 0.0 0.0 0.0 10.0 0.0 0.0 0.0 10.0" Properties=species:S:1:pos:R:3:forces:R:3 id=SCAN_6 energy=-75.54557321 stress="-0.0016320110817085768 -0.0023365713563656566 -0.0008089994468604844 -0.0023365713563656566 0.0013708913059181248 5.692256322805531e-06 -0.0008089994468604844 5.692256322805531e-06 0.0003677684422244192" pbc="T T T"
C        1.30822230      -0.49311393      -0.23645544      -1.03214700       1.92672900       0.64959000
C        0.22032228      -1.31771394      -0.53715545      -0.49985600       2.42515500       0.49961000
C       -1.09817775      -0.77911393      -0.37155544       1.65646100       0.07417300       0.48959500
C       -1.27317775       0.53068609       0.15444457      -2.22781900      -1.72374800      -0.71518900
C       -0.21147773       1.24728611       0.64944458      -0.21378000       0.22213200      -0.58880000
C        1.04932229       0.78958610       0.38824457       1.73912400      -1.81425000      -0.85178900
H        2.31262231      -0.69891393      -0.59005545       0.21447700      -0.28926100       0.20723200
H        0.45002228      -2.19421395      -1.06945545      -0.21480300      -1.54897700      -0.51827500
H       -1.91217776      -1.44551394      -0.59815545      -0.64923500       0.09220400      -0.32889800
H       -2.31767777       0.94188610       0.08904457       0.89844500      -0.25000000       0.49495000
H       -0.36737773       2.21938612       1.06664458      -0.05843800       0.70348900       0.32440200
H        1.89372231       1.44388611       0.54274457       0.38757100       0.18235400       0.33757200
12
Lattice="10.0 0.0 0.0 0.0 10.0 0.0 0.0 0.0 10.0" Properties=species:S:1:pos:R:3:forces:R:3 id=SCAN_7 energy=-75.62427641 stress="-0.002623012934679817 -0.0017579148037958935 0.0025249026527300582 -0.0017579148037958935 0.002029988428102271 -0.0026566172198135727 0.0025249026527300582 -0.0026566172198135727 0.00436661595805006" pbc="T T T"
C        1.04485965      -0.48171759       0.88397341      -1.47742700       0.06185300      -1.40643800
C       -0.31064037      -0.80121760       1.14057342      -0.70895400       1.02111500      -1.52295300
C       -1.34864039      -0.32431759       0.25047340       3.59473200       0.31354600      -0.07271200
C       -1.00134038       0.43568243      -0.89382662      -1.05870300       0.56877200       0.32522300
C        0.29735964       0.83598243      -1.12242662       1.96815600      -0.52483300       0.87759800
C        1.31465966       0.32838242      -0.25742661      -1.79983000      -0.56601800       0.74378900
H        1.83165966      -0.97401760       1.44957342       0.19872600       0.28940400       0.15221800
H       -0.62654038      -1.39451761       1.98477343       0.07617400      -0.24401200       0.38472800
H       -2.33814041      -0.49501759       0.49557340      -2.12560800      -0.53116800       0.36410100
H       -1.74374040       0.88718243      -1.57552663      -0.16329900      -0.50151100       0.40107300
H        0.60215964       1.53498245      -1.92652664      -0.34462400      -0.48894000       0.26083600
H        2.31915967       0.52718243      -0.44382661       1.84065700       0.60179100      -0.50746300
12
Lattice="10.0 0.0 0.0 0.0 10.0 0.0 0.0 0.0 10.0" Properties=species:S:1:pos:R:3:forces:R:3 id=SCAN_8 energy=-75.43871486 stress="0.0009408138780900129 -0.0031156365254584044 -0.0014422255137178446 -0.0031156365254584044 0.007235169861742125 0.0034498568561312014 -0.0014422255137178446 0.0034498568561312014 0.002292443886845662" pbc="T T T"
C        1.28038095      -0.47012695      -0.27041385       2.23241900       0.65577900       1.04469100
C        0.22608093      -1.26692696      -0.55851386      -1.69418200      -1.53759600      -1.66913300
C       -1.09751909      -0.79672695      -0.40131386       0.09287800       0.56602900       0.55306500
C       -1.30441910       0.51887307       0.15478615       1.16974000      -1.41064700       0.20125400
C       -0.20991908       1.25327308       0.70838616      -0.16996600      -0.36534500      -1.79667600
C        1.10338095       0.75947307       0.39518616      -0.59154500       1.29417200       0.71495200
H        2.26988097      -0.95822696      -0.47541386      -0.44819800       1.06133600       0.20555800
H        0.48268094      -2.21632698      -1.14041387      -0.75762000       0.89882000       0.99608600
H       -1.93321911      -1.48862697      -0.64801386       0.31692100       0.76136700      -0.05467400
H       -2.29691911       0.93037308       0.14508615      -0.57617500       0.15561700       0.29087300
H       -0.41621908       2.28847310       1.12368617       0.51870700      -1.23340100      -0.31642100
H        1.91778096       1.47007308       0.66028616      -0.09298000      -0.84613100      -0.16957500
12
Lattice="10.0 0.0 0.0 0.0 10.0 0.0 0.0 0.0 10.0" Properties=species:S:1:pos:R:3:forces:R:3 id=SCAN_9 energy=-75.64986974 stress="0.0015346997129269309 0.00021519475164220297 -0.0006407158778084201 0.00021519475164220297 0.002339885597711501 -0.0017181501491548917 -0.0006407158778084201 -0.0017181501491548917 0.0023694329019134323" pbc="T T T"
C        0.98867868       0.49197263      -0.88456428       0.03303100       1.49675100       0.17619600
C       -0.30942135       1.07537264      -0.84546428      -0.66231300      -0.80756200      -0.93591700
C       -1.33472136       0.48117263      -0.06156427       0.76469000       0.27959800      -0.12526300
C       -0.97912136      -0.58532739       0.78443575      -1.61202900       0.40646300       0.28698400
C        0.33607866      -0.97642740       0.94213575      -0.09680900      -1.22353800      -0.56656600
C        1.31927868      -0.46782739       0.07883573      -0.54899300       0.09257700       0.47250700
H        1.72927869       0.97147264      -1.58806430      -0.52011900      -0.75292900       0.74302300
H       -0.59762135       1.82847265      -1.62006430       0.33917800      -0.33818300       0.70410500
H       -2.38792138       0.82427263      -0.10006427       0.59466800      -0.09277500      -0.09600700
H       -1.81592137      -1.09102740       1.31323575       0.62368700       0.18272700      -0.05345400
H        0.53347867      -1.89702741       1.53523576       0.16028900       0.80119800      -0.02847800
H        2.29137870      -0.86162740       0.29523574       0.92471900      -0.04432500      -0.57713000
12
Lattice="10.0 0.0 0.0 0.0 10.0 0.0 0.0 0.0 10.0" Properties=species:S:1:pos:R:3:forces:R:3 id=SCAN_10 energy=-75.50138745 stress="0.002332938798054392 0.0005263090155309799 -3.364173418851077e-05 0.0005263090155309799 0.003373167433501474 -0.002456888927785308 -3.364173418851077e-05 -0.002456888927785308 0.002738549510109042" pbc="T T T"
C        0.70009850      -0.76121472       0.96320574      -1.43221700      -2.14493300      -0.47232700
C       -0.72990152      -0.86821472       0.85020574      -0.59215500       1.14284700      -1.18298700
C       -1.45590153      -0.06021471      -0.11079427       3.96423600       0.54042400       0.20184900
C       -0.65390152       0.83278530      -0.93879429      -1.84210500      -0.50939400       0.85718500
C        0.71609850       0.82478530      -0.82179429       1.10639900       1.42281400      -0.48405000
C        1.42009852       0.03478529       0.06920573       0.36524400      -0.56001900       0.97305400
H        1.13509851      -1.63921474       1.51020575       0.16545900       1.20973800       0.01928900
H       -1.31490153      -1.58521474       1.46220575       0.49723300       0.35368000      -0.18254100
H       -2.49790155      -0.05521471      -0.23479428      -1.51269900      -0.23668900       0.05684900
H       -1.10090153       1.61178532      -1.60579430       0.03296600      -0.85708500       0.40472600
H        1.29209851       1.58778532      -1.37679430      -0.21027000      -0.41288800      -0.10326300
H        2.52709854       0.04778529       0.11120573      -0.54209200       0.05150600      -0.08778400
12
Lattice="10.0 0.0 0.0 0.0 10.0 0.0 0.0 0.0 10.0" Properties=species:S:1:pos:R:3:forces:R:3 id=SCAN_11 energy=-75.51470403 stress="0.0013005869471241756 0.00031175089781961695 0.0002545661912082746 0.00031175089781961695 0.001574639129823458 0.0024263804311779906 0.0002545661912082746 0.0024263804311779906 0.005197616724579283" pbc="T T T"
C       -1.13667172       0.45205768       0.72161590      -3.00420100      -0.62263900      -0.76769000
C        0.10272831       0.55255769       1.27211591       2.28425100       0.59098400       0.12938800
C        1.27052833       0.24365768       0.52291590       0.50823900      -0.90776100      -0.00815900
C        1.17372832      -0.41394233      -0.71088412      -1.50474900       0.60613500       0.53258300
C       -0.13657170      -0.64014233      -1.20518413       0.85968900      -0.20160400      -1.78333100
C       -1.28117172      -0.16844233      -0.59908412      -0.45128800      -0.25688800       1.56403000
H       -2.05867173       0.77525769       1.34861591       1.37362000      -0.57926800      -1.17188400
H        0.34272831       0.92375769       2.28021593      -0.68637200       0.09699200      -0.18849100
H        2.26692834       0.39465768       0.98541591      -0.49803300       0.02289900      -0.20187500
H        1.99332834      -0.74394234      -1.32648413       0.59054100      -0.01459600       0.04725200
H       -0.22397170      -1.12564234      -2.22318415       0.00448500       0.28809400       1.06720900
H       -2.23187173      -0.53064233      -1.08238413       0.52381900       0.97765200       0.78096800
12
Lattice="10.0 0.0 0.0 0.0 10.0 0.0 0.0 0.0 10.0" Properties=species:S:1:pos:R:3:forces:R:3 id=SCAN_12 energy=-75.74330556 stress="-0.0012633251376426525 0.00028895690649189136 0.0005215217780314274 0.00028895690649189136 0.00029531700429116635 -0.0002459841161601851 0.0005215217780314274 -0.0002459841161601851 -0.00011193522466359036" pbc="T T T"
C        0.79107317       0.05147167       1.14317832      -0.77140600       0.04235000       0.40239200
C        1.38707318      -0.12262833      -0.08932170       0.65377300      -0.88074000      -0.59381800
C        0.59057317      -0.25392833      -1.25372172       1.28512600       0.92790500       0.68104300
C       -0.76632686      -0.12132833      -1.13092171      -1.45563400       0.56467400      -0.01528300
C       -1.40992687       0.16247167       0.10077831       0.80516200      -0.23398400      -0.52760900
C       -0.59132685       0.24627167       1.23867833      -0.54417500       0.04145500      -1.21998800
H        1.30507318       0.03417167       2.09647834       0.62966900       0.18025200      -0.01547100
H        2.48047320      -0.24822833      -0.14122170      -0.29281800       0.12620900      -0.09532700
H        1.04737317      -0.19762833      -2.24572173       0.04316600      -0.47980200       0.09345600
H       -1.33882687      -0.06532833      -2.05502173      -0.29600300      -0.23663300      -0.04123100
H       -2.49522689       0.34777168       0.08597831       0.37269200      -0.04222700       0.29777600
H       -1.01242686       0.57777168       2.15627834      -0.42955100      -0.00945800       1.03406000
12
Lattice="10.0 0.0 0.0 0.0 10.0 0.0 0.0 0.0 10.0" Properties=species:S:1:pos:R:3:forces:R:3 id=SCAN_13 energy=-75.56309876 stress="0.0002061632879370499 0.002192298872920865 0.004073146440460155 0.002192298872920865 0.0006156999092318799 0.0006501530396067555 0.004073146440460155 0.0006501530396067555 0.0024194024239752535" pbc="T T T"
C       -1.22874208      -0.31422699      -0.69038564      -0.97731500       1.66277800       2.78651600
C       -1.18874208       0.44477303       0.56061438       1.35498300      -1.28707600      -0.98056000
C        0.00925794       0.61877303       1.27161439       0.89148500       0.72123200      -0.16951300
C        1.24825796       0.22577302       0.68561438      -0.78550300      -0.27969000      -0.12162500
C        1.18725796      -0.30522699      -0.60438564      -0.71954500      -0.69342700       0.82493800
C       -0.03674206      -0.64522699      -1.24538565       1.50842200       0.01570900      -0.44669800
H       -2.22374210      -0.61022699      -1.03338565       0.25471800       0.09158700      -0.42032200
H       -2.07774210       0.82477303       0.98561439      -1.18994100       0.28379200       0.45684000
H        0.09525794       1.17577304       2.23561441      -0.57479300      -0.47653100      -0.54015300
H        2.22025798       0.22177302       1.23461439      -0.76207900       0.33046200      -0.35436800
H        2.08925798      -0.72822699      -0.96638565       0.97305100      -0.19735200      -0.86234800
H        0.00925794      -1.17722700      -2.19038567       0.02651800      -0.17148500      -0.17270800
12
Lattice="10.0 0.0 0.0 0.0 10.0 0.0 0.0 0.0 10.0" Properties=species:S:1:pos:R:3:forces:R:3 id=SCAN_14 energy=-75.33071063 stress="0.004233347255194201 -0.0013447705902263033 -0.0018110550124936639 -0.0013447705902263033 0.004476859733740536 0.0006971391203064048 -0.0018110550124936639 0.0006971391203064048 0.0012314247845002634" pbc="T T T"
C       -1.00622556       0.93106875       0.50603754      -0.25659600      -1.05724300      -0.40101100
C       -1.26222556      -0.51493127       0.34903754      -0.14382500       2.26356700      -0.49115100
C       -0.32122554      -1.34393129      -0.31696247       0.71664800       1.83893800       0.95255300
C        1.00177448      -0.90293128      -0.59496247      -1.29254100       2.17011700       0.91608500
C        1.26377448       0.44606874      -0.20596247      -0.20559400      -1.14812900       0.02767800
C        0.31777447       1.36706876       0.26203754      -0.39051700      -0.77536800       0.05723100
H       -1.84322557       1.68806876       0.69803755       1.08854000      -1.23019000       0.18475800
H       -2.28022558      -0.87893128       0.64603755       0.88208800       0.08706500      -0.44836200
H       -0.63622555      -2.30993131      -0.52996247      -0.43625800      -2.01206900      -0.45092500
H        1.83377449      -1.40693129      -1.08096248      -0.33778200      -0.62775800       0.04110900
H        2.28577450       0.74706875      -0.17596247       0.93000900       0.44581300      -0.41618300
H        0.71577447       2.37006878       0.45203754      -0.55417100       0.04525700       0.02821600
12
Lattice="10.0 0.0 0.0 0.0 10.0 0.0 0.0 0.0 10.0" Properties=species:S:1:pos:R:3:forces:R:3 id=SCAN_15 energy=-75.46972827 stress="0.0006927763054274123 7.635862264605578e-05 -0.00017433159139504528 7.635862264605578e-05 -0.003100213756408347 0.0022129395436001607 -0.00017433159139504528 0.0022129395436001607 -0.0005846671258579884" pbc="T T T"
C       -1.04480207      -0.59099993       0.61931065      -1.88261400      -1.00252100       0.16306000
C        0.16419795      -1.25599994       0.64531065       0.78110500      -0.33265200      -1.09174000
C        1.20819797      -0.65599993      -0.08368936       0.62026500      -1.15646400       1.01776900
C        1.07319797       0.62500009      -0.58568937       1.98915100       0.46266700      -1.63503300
C       -0.12680205       1.29800010      -0.52968937      -1.42569600      -2.12670500       0.87779700
C       -1.24780207       0.62300009       0.00131064       0.40569400       0.99126200       0.18033500
H       -1.97680209      -1.11599994       0.85531065       0.21586300      -0.16174600       0.61941600
H        0.26119795      -2.31099996       0.95831066      -0.12882500       0.53006300       0.14492300
H        2.13019799      -1.25299994      -0.25768937      -0.38472500       0.54931900       0.13511200
H        1.94419798       1.00000010      -1.22168938      -1.10563400      -0.10533100       0.88708600
H       -0.39180206       2.12700012      -1.07168938       0.15519600       2.50952900      -1.27710700
H       -2.27880209       1.04100010      -0.05868936       0.76021900      -0.15742300      -0.02162100
12
Lattice="10.0 0.0 0.0 0.0 10.0 0.0 0.0 0.0 10.0" Properties=species:S:1:pos:R:3:forces:R:3 id=SCAN_16 energy=-75.68898924 stress="0.0003417850397333672 -0.0020974279342074395 0.0013389722282483578 -0.0020974279342074395 0.0011875719413818077 1.6533757674464753e-05 0.0013389722282483578 1.6533757674464753e-05 -1.750743309810254e-05" pbc="T T T"
C        0.23523485      -1.15729275       0.79300521      -1.19848200       1.19146700       0.37864800
C        1.28133487      -0.51479274       0.17170520       0.97143300      -0.26351100      -1.34039000
C        1.04023487       0.51360727      -0.75389482      -1.39535300       0.68748200       1.12486600
C       -0.21676515       1.13230729      -0.84669482      -1.44870500       0.29302500       0.03547100
C       -1.28506517       0.56050728      -0.09189480       0.67414200       0.27119000      -0.10128800
C       -1.04726517      -0.55079274       0.71280521       0.66544900      -0.50000100      -0.41146200
H        0.36473486      -2.00929277       1.42870522       0.22223200      -0.52369800       0.40693100
H        2.33473489      -0.83759275       0.24580520      -0.45689500      -0.18564300       0.15205100
H        1.84903488       0.95420728      -1.25009483       1.36464400       0.60385700      -0.87058000
H       -0.48336516       2.08520730      -1.43389483       0.84746800      -1.47519100       0.54664900
H       -2.29416519       0.98240728      -0.08239480       0.15719500       0.14821700      -0.17175500
H       -1.86276518      -0.97899275       1.27010522      -0.40312700      -0.24719500       0.25085900
12
Lattice="10.0 0.0 0.0 0.0 10.0 0.0 0.0 0.0 10.0" Properties=species:S:1:pos:R:3:forces:R:3 id=SCAN_17 energy=-75.49757896 stress="0.0022179265093917417 0.0005102683370774599 -0.0004341780993238171 0.0005102683370774599 0.0005613675722910661 -0.00012775120878857853 -0.0004341780993238171 -0.00012775120878857853 0.000182152202329777" pbc="T T T"
C       -0.80502279       0.16476933       1.08113364       0.12860200       0.50250400       2.30002800
C       -1.39802280      -0.34823068      -0.03486638       0.80886000       0.19857700      -1.20896400
C       -0.56902279      -0.52323068      -1.13886640       1.62870100      -0.05277100      -0.97956800
C        0.86097724      -0.26423068      -1.09586640      -2.77873600       0.45239900       1.29432900
C        1.38297725       0.39676934       0.03313362       0.33157700      -0.09216500       0.22475300
C        0.55197723       0.55276934       1.14913364      -1.19556500       0.23876900       0.89512000
H       -1.45402280       0.29876933       1.98413366       0.62036300      -0.00842100      -0.52283700
H       -2.45402282      -0.50523068      -0.04086638      -0.76209600      -0.28200900      -0.24636300
H       -0.92602279      -0.77623069      -2.15286642      -0.20634100      -0.35183100       0.55618800
H        1.35497725      -0.60523068      -1.96786641       1.10980100       0.20990500      -0.81008500
H        2.38997726       0.84476934       0.09813362      -0.14372900      -0.57383800      -0.27002700
H        0.80497724       0.99776935       2.15313366       0.45856200      -0.24111800      -1.23257400
12
Lattice="10.0 0.0 0.0 0.0 10.0 0.0 0.0 0.0 10.0" Properties=species:S:1:pos:R:3:forces:R:3 id=SCAN_18 energy=-75.75085406 stress="0.0019079107511091203 -0.0007212812776053212 0.0009571354244541977 -0.0007212812776053212 0.001919101776971829 -0.0015501037574496108 0.0009571354244541977 -0.0015501037574496108 0.001827251728675331" pbc="T T T"
C       -1.26028379      -0.55353217       0.39750329       2.30236100       1.26362500      -0.44224000
C       -1.17228379       0.45746784      -0.60849672      -1.43161100      -1.47207000       0.93967200
C        0.03671623       0.99946785      -0.97349673       1.01704200       0.68379400      -1.19606300
C        1.25471626       0.48546785      -0.44349672      -0.73622600       1.00448100       0.25170300
C        1.20071625      -0.47153217       0.58550330      -0.46423300       0.48492000      -0.31059700
C       -0.05028377      -0.93353218       1.03450331      -0.55591600      -0.24522800      -0.44370500