9
Lattice="10.0 0.0 0.0 0.0 10.0 0.0 0.0 0.0 10.0" Properties=species:S:1:pos:R:3:forces:R:3 id=SCAN_0 energy=-46.4251636 stress="-0.0002468828934743123 -0.00036146451800727714 -0.0014790379345423037 -0.00036146451800727714 -0.0013904147464638874 0.001224871199918086 -0.0014790379345423037 0.001224871199918086 -0.000776456218278129" pbc="F F F"
C        0.00552057       0.59149006      -0.00081382      -0.71860100       1.20137500      -0.10010000
C       -1.25363934      -0.25535678      -0.02980059       2.49930200      -1.63157000      -0.62984800
O        1.08783065      -0.30755466       0.04822981       1.57915700      -0.42122400      -0.50086500
H        0.06282121       1.28375273      -0.84278855       0.10993100       0.06531300      -0.50158400
H        0.00605667       1.23031210       0.88534639       0.10004000       0.25086600       0.43846600
H       -2.21822060       0.18980504      -0.05816012      -0.84633500       0.63601600      -0.74467900
H       -0.91097171      -1.05392634      -0.78159584      -1.50692000       0.80290500       0.52576200
H       -1.19200947      -0.74247683       0.92196676      -0.26202300      -0.84733200       0.88887700
H        1.84879848      -0.02863240      -0.52569023      -0.95454900      -0.05635100       0.62397100
9
Lattice="10.0 0.0 0.0 0.0 10.0 0.0 0.0 0.0 10.0" Properties=species:S:1:pos:R:3:forces:R:3 id=SCAN_1 energy=-46.19312739 stress="0.0005803292770154995 -0.003018131669893857 0.002779799643922004 -0.003018131669893857 0.0009293544673348912 0.0014417137099695223 0.002779799643922004 0.0014417137099695223 -0.0009494958172841165" pbc="F F F"
C        0.02871987      -0.60038688      -0.01572880      -0.21698000      -0.10203700       0.17560700
C       -1.29603928       0.22769067       0.03236217       1.91813300       2.24201200      -0.97963100
O        1.17709309       0.28678783       0.04881757      -0.48719600      -0.47035000      -0.89907200
H        0.40683167      -1.30971713       0.73882603      -1.41406300       0.01423700       0.67357800
H       -0.09917435      -1.27589991      -0.90935590       0.73994900       0.69114400      -0.01069400
H       -2.18242558      -0.18047388       0.36046447      -1.97592800      -1.76404200       0.93553100
H       -1.24658699       1.20276190       0.57455701       0.59570800      -0.63855600       0.34792900
H       -1.55928820       0.64393392      -0.98061716       0.45041800      -0.70244100       0.20198000
H        1.08907703       0.80549416      -0.75669534       0.38996000       0.73003200      -0.44523000
9
Lattice="10.0 0.0 0.0 0.0 10.0 0.0 0.0 0.0 10.0" Properties=species:S:1:pos:R:3:forces:R:3 id=SCAN_2 energy=-46.4354951 stress="-0.0017215954621923792 0.0009961823055457235 -0.00045737778874472515 0.0009961823055457235 0.0033146595269554447 0.0006589223599286215 -0.00045737778874472515 0.0006589223599286215 0.0024258623859205425" pbc="F F F"
C        0.02308233       0.60947063       0.00208972      -1.06901800       0.51260900      -1.13517700
C       -1.24672218      -0.23401643      -0.02298658       1.25116800      -2.99214000      -0.47633000
O        1.08624189      -0.34069212       0.02776667       0.58651800       0.56374500      -0.07686100
H        0.07570152       1.27724921      -0.96396902       0.00319500      -0.84194000       1.53401700
H       -0.02021030       1.26455298       0.92222357       0.32071600      -0.27558400      -0.64471700
H       -2.15222230       0.28946807       0.13985440      -1.17955600       0.75066100      -0.44179300
H       -1.24412023      -1.08535614      -0.84084539      -0.24510900       2.14826100       0.60878200
H       -1.20717290      -0.95730756       0.81306980       0.21273200       0.40768600       0.49750900
H        1.87824718       0.14795584      -0.26219537       0.11935300      -0.27329800       0.13457000
9
Lattice="10.0 0.0 0.0 0.0 10.0 0.0 0.0 0.0 10.0" Properties=species:S:1:pos:R:3:forces:R:3 id=SCAN_3 energy=-46.00942604 stress="0.0025429281310856092 -0.0006850680416569464 0.0015551344138050726 -0.0006850680416569464 0.0008087560280045751 0.002354478246047816 0.0015551344138050726 0.002354478246047816 0.0014687144784480929" pbc="F F F"
C        0.02738420       0.52272759      -0.03992704      -2.21064300       1.42904400       3.31319100
C       -1.36900935      -0.23818975       0.01955695       2.94204200      -1.54413900      -0.32413600
O        1.25259645      -0.23473816       0.06449436      -1.94132100      -0.83809900      -3.70769200
H       -0.11045927       1.21909313      -0.82830565       0.91417400       0.53276800      -1.80299800
H       -0.07643477       1.27803801       0.83771002       0.83901500      -1.20931900      -0.73170200
H       -2.10853240       0.23435798      -0.60821419      -0.51439100       0.25553900       0.08218000
H       -1.14950731      -1.27114324      -0.35409869      -0.42243600       0.39300900      -0.23093100
H       -1.58339221      -0.42116144       1.05679081      -0.84340700       0.20584500       0.59712200
H        1.12321216      -0.70166277      -0.88491139       1.23696600       0.77535100       2.80496800
9
Lattice="10.0 0.0 0.0 0.0 10.0 0.0 0.0 0.0 10.0" Properties=species:S:1:pos:R:3:forces:R:3 id=SCAN_4 energy=-46.43900614 stress="0.001476897096912126 0.002046996540470303 2.712559866108864e-05 0.002046996540470303 0.002130345653337348 -0.001888630729419267 2.712559866108864e-05 -0.001888630729419267 -0.0014155992357868265" pbc="F F F"
C       -0.00529829      -0.56779826      -0.04696762      -0.82813400       1.67219100       0.60730000
C       -1.28331396       0.24817670       0.00841856      -0.05528500       2.16225200       1.03693800
O        1.20331808       0.21533808       0.05227037      -0.03465500       1.50718500      -1.21050600
H       -0.07148337      -1.19300730       0.83020364       0.60510000      -0.52308600       0.50263900
H       -0.10136783      -1.16756575      -0.90514410       0.65817900      -1.15917200      -1.59598700
H       -1.40216300       1.02309782      -0.77454161      -0.00549900      -0.68460600      -0.55293400
H       -2.23242840      -0.30891251       0.15385662       0.49015900       0.03573000      -0.18393100
H       -1.15231452       0.96163687       0.86494226      -0.35592600      -0.64104300       0.09902200
H        1.20551128       1.07285847      -0.53988850      -0.47393900      -2.36945100       1.29745900
9
Lattice="10.0 0.0 0.0 0.0 10.0 0.0 0.0 0.0 10.0" Properties=species:S:1:pos:R:3:forces:R:3 id=SCAN_5 energy=-46.26594356 stress="-0.0014670355124932304 -0.00016765317663035021 0.00034949954501295894 -0.00016765317663035021 0.002411787782841676 -0.0011839206585431657 0.00034949954501295894 -0.0011839206585431657 0.0009408950177086493" pbc="F F F"
C        0.00882197       0.57692686      -0.00425538       0.13114100      -0.81573600      -1.40860100
C       -1.26187060      -0.26711558      -0.01066459      -1.31007800       1.89132000      -0.24525900
O        1.17916472      -0.22945836       0.02736444       0.19494600      -2.44023800      -0.53948700
H        0.09440430       1.18902494      -0.95082402      -0.35142800       0.07485700       0.93952900
H       -0.02324655       1.12900760       0.92030099       0.38001700       0.97168500       0.23647900
H       -1.68230866      -0.24857197       0.98994836      -0.31927100       0.07558600       0.51258100
H       -2.00794451       0.35655209      -0.65551281       0.74826600      -1.83972900       0.60557300
H       -1.10876973      -1.34196383      -0.15262933      -0.12645900       0.02455100      -1.01879400
H        0.93350083      -1.13124795      -0.40792719       0.65286500       2.05770400       0.91797800
9
Lattice="10.0 0.0 0.0 0.0 10.0 0.0 0.0 0.0 10.0" Properties=species:S:1:pos:R:3:forces:R:3 id=SCAN_6 energy=-46.42629257 stress="-0.0020752893013379317 -0.00017515547059966189 -0.001926541655849882 -0.00017515547059966189 -0.0009599253790334675 -0.0016738791249250016 -0.001926541655849882 -0.0016738791249250016 -0.0010446601069264586" pbc="F F F"
C       -0.01176999      -0.62962529      -0.02156842       0.87195500       0.25261300      -0.48604300
C       -1.21333369       0.28224089      -0.01341679      -0.02288800      -0.88586700      -1.94743800
O        1.08681143       0.29441776       0.07574458       0.94233300       0.37561600       1.53604000
H       -0.05354030      -1.26185484       0.89551896       0.43124100      -0.04104500      -0.52982100
H        0.27583047      -1.19807030      -0.93345962      -1.16273900      -0.37448300       0.32651800
H       -1.00196737       1.06797314      -0.75129970      -0.40754000       0.18098600       0.22672400
H       -2.16477927      -0.18880754      -0.21580033      -0.52374000      -0.43387400      -0.36613200
H       -1.28466578       0.63176260       0.96828533      -0.06360100       1.20012200       1.65950600
H        1.56773577       0.41261990      -0.74880323      -0.06502100      -0.27406800      -0.41935400
9
Lattice="10.0 0.0 0.0 0.0 10.0 0.0 0.0 0.0 10.0" Properties=species:S:1:pos:R:3:forces:R:3 id=SCAN_7 energy=-46.52892568 stress="-0.001221182468024689 -0.0011492865244036397 -0.00026688068871364226 -0.0011492865244036397 0.00034999886574302964 -0.0003341828816180414 -0.00026688068871364226 -0.0003341828816180414 0.0012727935069866175" pbc="F F F"
C        0.02227625      -0.55135626      -0.00975017      -0.57438900      -2.23049200      -2.04587200
C       -1.26617003       0.23733854      -0.00813300      -0.92204200       0.50505700       1.21259600
O        1.14475114       0.26714904       0.06844371       1.59805800       1.10423500      -0.71151900
H        0.07985622      -1.38260275       0.73332305      -0.05104800       0.89195500       0.32850100
H        0.11052668      -1.18167430      -0.96127494      -0.31802700       0.57027200       0.57035500
H       -1.08902433       1.14335470       0.59433916       0.10080600       0.17650300      -0.24480300
H       -1.74277141       0.53051817      -0.94832573       0.53288600       0.00671000      -0.41352800
H       -2.09222078      -0.21489497       0.55359459       0.00893200      -0.58942400       0.05966400
H        1.37643242       0.60440521      -0.84497569      -0.37517500      -0.43481700       1.24460600
9
Lattice="10.0 0.0 0.0 0.0 10.0 0.0 0.0 0.0 10.0" Properties=species:S:1:pos:R:3:forces:R:3 id=SCAN_8 energy=-46.32391041 stress="0.00045797073211168414 -0.004685220032889898 -8.704408626956792e-05 -0.004685220032889898 -0.00016609904085800528 -0.001572005212972335 -8.704408626956792e-05 -0.001572005212972335 -0.0012965174831740998" pbc="F F F"
C       -0.11021274       0.64473547      -0.00752404       3.54983400      -0.29849100       0.23874900
C       -1.18381529      -0.32151550       0.01497779      -2.44888600      -0.45670800       0.94094900
O        1.19818741      -0.22745422       0.01831881      -0.96035600       2.94418300       0.41338700
H       -0.06545829       1.25319173      -0.91570906      -0.05780800       0.07391900      -0.17093400
H       -0.02428751       1.30489094       0.85505208      -0.01829600       0.03518000       0.29223600
H       -0.98021056      -1.13967142       0.76744767      -0.60577200       0.94174200      -0.14287000
H       -2.20528939       0.20702631       0.12791104       1.15826500      -1.03866800       0.05451100
H       -1.16554661      -0.82301924      -0.93033775      -0.41600100      -0.52711600      -1.02986900
H        0.83245879      -1.04107959      -0.28384736      -0.20098100      -1.67404200      -0.59615900
9
Lattice="10.0 0.0 0.0 0.0 10.0 0.0 0.0 0.0 10.0" Properties=species:S:1:pos:R:3:forces:R:3 id=SCAN_9 energy=-46.33139908 stress="-0.0030125143116805616 0.0012037561745452227 0.00021631198177573608 0.0012037561745452227 -0.0007938200966663364 0.0005461694975695404 0.00021631198177573608 0.0005461694975695404 -0.0017983036093494845" pbc="F F F"
C       -0.00108532       0.54256363      -0.04167402       0.33936000       0.25068000       1.11586900
C       -1.29181115      -0.25491241      -0.00004163       1.66155000       0.83551500       0.85840500
O        1.14846582      -0.31686283      -0.01835034      -0.62565900      -0.33814800      -0.94978000
H       -0.02412192       1.32809871      -0.80292827       0.25122400      -0.34244900      -1.10432900
H        0.12180111       1.21511554       0.83743477      -0.60379700      -0.40019800       0.33998800
H       -1.93136435       0.49553833       0.36967529      -2.04653800       1.14542500      -0.55916700
H       -1.51238451      -0.79398019      -0.90014393      -0.48631400      -0.14816000      -0.52164600
H       -1.30657511      -0.85345281       0.88663663       0.42684300      -1.31690200       0.46424300
H        1.81995546       0.21250960       0.39725980       1.08333100       0.31423700       0.35641700
9
Lattice="10.0 0.0 0.0 0.0 10.0 0.0 0.0 0.0 10.0" Properties=species:S:1:pos:R:3:forces:R:3 id=SCAN_10 energy=-46.11053125 stress="-0.0003698843138180937 -0.0010631349739390731 0.0010535729819582198 -0.0010631349739390731 -0.003156736863052346 -0.004138644837227174 0.0010535729819582198 -0.004138644837227174 -0.005285228788179306" pbc="F F F"
C        0.00322892       0.50395396       0.00667275      -1.15217000      -0.99491300      -4.60514900
C       -1.32498076      -0.23460519       0.01295515       1.79050500      -2.75823000       0.62689700
O        1.21781066      -0.21652078       0.05536860      -1.15619200       1.80403400       4.53402500
H       -0.15349427       1.04825213      -0.99964399       0.98407000      -0.10172700       0.95794200
H       -0.07711599       1.21805225       0.71000492       0.68148800       2.56735600       2.94445200
H       -2.13749568       0.44707594       0.03857388      -1.00492200       0.58017500       0.25889300
H       -1.33532161      -0.82596188      -0.88574366      -0.49703400      -0.22097200      -1.02335400
H       -1.32734159      -1.06968035       0.75858773      -0.43063900       0.86217600       0.30479100
H        1.44110307      -0.58848582      -0.73422481       0.78489400      -1.73789900      -3.99849900
9
Lattice="10.0 0.0 0.0 0.0 10.0 0.0 0.0 0.0 10.0" Properties=species:S:1:pos:R:3:forces:R:3 id=SCAN_11 energy=-46.37177284 stress="0.0020433639821590384 -0.0021802652433261624 0.001403927613721425 -0.0021802652433261624 -0.0003917982523590698 -0.0004099423193880124 0.001403927613721425 -0.0004099423193880124 -0.00018559751536726456" pbc="F F F"
C       -0.03339040       0.57974258      -0.02535680       1.07180300      -1.44634600      -0.50841800
C       -1.27432511      -0.28201018      -0.01348871      -2.03369700       1.23698100       2.76760300
O        1.20508463      -0.24760248       0.06350393      -1.13895900       0.99464800       0.70346500
H        0.04305724       1.14814296      -0.92414328       0.08814200       0.83149900      -0.96598800
H       -0.01543115       1.23494731       0.81876629       0.10597800       0.62170900       0.67013600
H       -2.24707414       0.28011132      -0.38683153       1.83034400      -1.18659500       0.32469300
H       -1.13985793      -1.30103360      -0.36674100      -0.09418800      -0.06350400      -0.58296600
H       -1.44013112      -0.37985536       1.13771771      -0.26733000      -0.36559300      -1.62865100
H        1.24461416      -0.59773029      -0.82409470       0.43790700      -0.62279800      -0.77987500
9
Lattice="10.0 0.0 0.0 0.0 10.0 0.0 0.0 0.0 10.0" Properties=species:S:1:pos:R:3:forces:R:3 id=SCAN_12 energy=-46.51733046 stress="0.0016298327950236432 0.0011930894354490885 -0.0006586352505088309 0.0011930894354490885 -0.002173817764399125 0.00013259461987026394 -0.0006586352505088309 0.00013259461987026394 0.0016672568837424395" pbc="F F F"
C        0.04236780       0.54195317      -0.01541237      -1.61219700       0.37883100       0.74321900
C       -1.35877658      -0.24856390       0.00007983       0.74234300       2.66430100       0.38352600
O        1.19645778      -0.27027319       0.07188321       0.28211800      -0.52264100       0.23280400
H        0.15227779       1.11586911      -0.93813027      -0.39701000       0.49006600      -0.07773600
H        0.01181838       1.22299719       0.88050267       0.33138200      -0.25593500      -0.73264200
H       -1.78616562      -0.23139560       1.03317711       0.25618500      -0.45566000      -0.70790100
H       -2.07289473       0.25529989      -0.69314707       0.26116000      -0.16506800       0.39596000
H       -1.12736402      -1.18819366      -0.40071902      -0.03789100      -1.91081400      -0.30756900
H        1.50792895      -0.37848113      -0.83996006       0.17391100      -0.22307900       0.07033800
9
Lattice="10.0 0.0 0.0 0.0 10.0 0.0 0.0 0.0 10.0" Properties=species:S:1:pos:R:3:forces:R:3 id=SCAN_13 energy=-46.20051649 stress="0.003145364833424987 -0.001573628005345065 -0.0007568703626411073 -0.001573628005345065 0.00012622828056186303 -0.002425949767048305 -0.0007568703626411073 -0.002425949767048305 -0.0009255471467681024" pbc="F F F"
C        0.00762468       0.59843445      -0.02286655      -0.94858000      -2.18206600      -2.51394600
C       -1.31860877      -0.25407151       0.00236380       1.04254700      -1.16089700      -0.61466000
O        1.21482306      -0.23924589       0.05388136      -0.80425000       2.98925200       2.63854100
H       -0.02015199       1.17538808      -1.04218706       0.33319000      -0.14844100       2.05757700
H       -0.09670128       1.05234039       0.93192264       0.74571400       1.60559400       0.56156900
H       -2.24595242       0.35441411       0.11882836       0.50778300      -0.41705900      -0.32709700
H       -1.32554699      -1.03068650      -0.81147083      -0.47405300       1.09552500      -0.28780900
H       -1.21822942      -0.98486624       0.80530371      -0.18705300       0.28296400       0.97297300
H        1.23612157      -0.86985449      -0.61341037      -0.21529800      -2.06487200      -2.48714700
9
Lattice="10.0 0.0 0.0 0.0 10.0 0.0 0.0 0.0 10.0" Properties=species:S:1:pos:R:3:forces:R:3 id=SCAN_14 energy=-46.31834226 stress="0.0007757946183107855 0.0010606820608526008 -8.263758082669434e-06 0.0010606820608526008 -0.0004231493526983814 -0.002494113288212076 -8.263758082669434e-06 -0.002494113288212076 -0.00019231337918671496" pbc="F F F"
C        0.00683346       0.51974448      -0.00504265       0.71117600       1.89486700      -0.10176800
C       -1.28593668      -0.22335716      -0.00864249      -3.69258200      -0.73159300      -0.46690900
O        1.19774489      -0.25504925       0.05774452      -0.03326400      -0.35420300       0.06131600
H        0.14500313       1.32995660      -0.82487399      -0.60366700      -1.17364300       0.78682700
H        0.06182497       1.07321866       0.91971876      -0.10442300       0.61053800       0.56172000
H       -2.07371871       0.09044429      -0.77507188       1.24049100      -0.10249600       0.17137100
H       -1.27624475      -1.31915158      -0.09853697       0.76499100      -0.02896600      -0.34421900
H       -1.98551519      -0.15464834       0.87971372       1.20292300       0.46335700      -0.00260400
H        1.34963294      -0.50103591      -0.85445042       0.51435500      -0.57786100      -0.66573300
9
Lattice="10.0 0.0 0.0 0.0 10.0 0.0 0.0 0.0 10.0" Properties=species:S:1:pos:R:3:forces:R:3 id=SCAN_15 energy=-46.47361036 stress="-0.0007265179037619371 0.0011354865477263118 0.0009529598548489818 0.0011354865477263118 -0.001933532146070871 -0.0008611472556072391 0.0009529598548489818 -0.0008611472556072391 0.002324138270186897" pbc="F F F"
C       -0.03039410      -0.57444649      -0.00308148       1.71793000      -1.01591300      -1.90257100
C       -1.24019863       0.25570320      -0.01014755      -0.33875100       1.96612000       1.64281500
O        1.10957786       0.31082695       0.01055311      -0.47165000       1.04849600       0.08144100
H        0.12313015      -1.28257482       0.79018258      -0.57235400      -0.50156800       0.96149600
H        0.00054869      -1.16599117      -0.93426534       0.10610200      -0.20975800      -0.16906300
H       -1.11920181       0.77720253       1.01480240      -0.48844000       0.38694400      -1.57148800
H       -1.24690835       0.94610744      -0.93288730      -0.12733900      -0.72448400       1.52012300
H       -2.18926160      -0.26747684       0.13595990      -0.00833400      -0.37539400      -0.49592000
H        1.95061704      -0.14509466      -0.08376206       0.18283600      -0.57444200      -0.06683200
9
Lattice="10.0 0.0 0.0 0.0 10.0 0.0 0.0 0.0 10.0" Properties=species:S:1:pos:R:3:forces:R:3 id=SCAN_16 energy=-45.9846583 stress="-8.994014650397774e-06 0.0011742525609071727 -0.0009481102022581704 0.0011742525609071727 -0.0018046137750757521 0.00011353929250894233 -0.0009481102022581704 0.00011353929250894233 -7.813745274693252e-05" pbc="F F F"
C       -0.03636940       0.49503038      -0.05047898       1.42951400       0.07382000       1.81012700
C       -1.34929358      -0.23937975      -0.01744815       1.80983400      -2.33344500      -0.05719000
O        1.26864097      -0.23228170       0.08725140      -1.71286000       0.05060900      -1.58632300
H        0.11962056       1.24170586      -0.81114209      -0.39686600       0.01441400      -1.32491400
H       -0.06543441       1.16445560       0.78996679       0.23241800       0.32855500       1.14863900
H       -2.02365401       0.47833752       0.30128872      -2.32724600       2.03585700      -1.03709400
H       -1.44128861      -0.91838197      -0.89393491      -0.90962800       0.68392100       0.28838200
H       -1.57463543      -0.82206770       0.90269476       1.24773800      -0.64892900      -0.16438400
H        1.34999083      -0.50155840      -0.86481963       0.62709500      -0.20480300       0.92275600
9
Lattice="10.0 0.0 0.0 0.0 10.0 0.0 0.0 0.0 10.0" Properties=species:S:1:pos:R:3:forces:R:3 id=SCAN_17 energy=-46.32986739 stress="0.0007071005688713143 -0.00011823290737160656 0.0011656580028408315 -0.00011823290737160656 0.0017007363386936773 0.0010340807489580865 0.0011656580028408315 0.0010340807489580865 0.0008581700557541927" pbc="F F F"
C       -0.02385183       0.57149519      -0.01682035       0.85369700      -0.30495900       3.87844700
C       -1.29017394      -0.27883424       0.00369659      -0.14576700       2.49146700      -0.45067500
O        1.20101899      -0.28010790       0.05962575      -0.36490000       1.17368200      -3.15421800
H       -0.10485723       1.31576478      -0.79836257       0.58919700       0.08010500      -0.80156400
H        0.13162153       1.22199427       0.98327712      -0.85992800      -1.20344600      -1.80290600
H       -1.39913474      -0.99200505       0.76486913       0.16248200      -0.83213300       1.65133100
H       -2.09496794       0.48676540       0.07154042      -0.15150100      -0.51663900       0.07154900
H       -1.44922951      -0.82557753      -0.89539018       0.02861100      -0.39853100      -1.30073000
H        1.50140463      -0.24608989      -0.91597548      -0.11189200      -0.48954600       1.90876600
9
Lattice="10.0 0.0 0.0 0.0 10.0 0.0 0.0 0.0 10.0" Properties=species:S:1:pos:R:3:forces:R:3 id=SCAN_18 energy=-46.34646189 stress="0.0003778921700266019 0.0008810202206640513 -0.0006307232216978809 0.0008810202206640513 -0.0023397732505472347 -0.0014709739047516627 -0.0006307232216978809 -0.0014709739047516627 -0.0014322266160981794" pbc="F F F"
C        0.00055187      -0.51801750      -0.02264039      -0.33873400      -1.49948400       1.54340500
C       -1.29315607       0.23536793      -0.01409009      -1.20974800      -0.47475500      -1.10393700
O        1.23621865       0.21193077       0.00039960      -0.30345900      -1.29019400      -0.62910500
H       -0.10249132      -1.11460024       0.91116198       0.63014100       0.24490200       0.32771300
H       -0.03211312      -1.37775665      -0.71370134       0.48923100       0.61888000      -0.81236500
H       -2.06691626      -0.35502664       0.52104020       0.06240500      -0.22612800      -0.74707100
H       -1.32571720       1.08464461       0.58898608       0.72068800       1.89772700       1.52980600
H       -1.68075215       0.64393175      -0.96312338       0.06858000      -0.55582800      -0.21788100
H        0.97911980       1.12077214       0.08663799      -0.11910500       1.28488000       0.10943500
9
Lattice="10.0 0.0 0.0 0.0 10.0 0.0 0.0 0.0 10.0" Properties=species:S:1:pos:R:3:forces:R:3 id=SCAN_19 energy=-46.29652187 stress="0.002961221589684053 0.003306289663217635 0.0007778605578314528 0.003306289663217635 4.751660897534925e-05 0.002689522455925229 0.0007778605578314528 0.002689522455925229 -0.0014473497927101945" pbc="F F F"
C       -0.05034203      -0.56422138       0.00129190       1.53287300      -0.79006700      -1.23013800
C       -1.29483749       0.25831134       0.00084025      -0.47682600       1.49155700      -1.43353400
O        1.22738646       0.22926714       0.04883417      -1.59831500      -1.99624000       2.59431600
H       -0.02379573      -1.17428071       0.90678402       0.35004500      -0.45773400      -0.14905200
H       -0.00828430      -1.19168526      -0.97474975      -0.04558100       0.49839400       1.51383400
H       -2.20532033      -0.20069464      -0.54830212       1.44655900       0.85450100       0.64313700
H       -1.58270892       0.64100037       0.95583089      -0.49809300      -0.40795400       1.33207200
H       -0.92244465       1.25188656      -0.38078609      -0.88010500      -0.55854700      -0.83678000
H        1.27986219       0.67755627      -0.75919777       0.16944300       1.36609000      -2.43385500
9
Lattice="10.0 0.0 0.0 0.0 10.0 0.0 0.0 0.0 10.0" Properties=species:S:1:pos:R:3:forces:R:3 id=SCAN_20 energy=-46.27559366 stress="0.003129405294590103 0.0012194598115059451 0.0005590394893871117 0.0012194598115059451 0.003271012653638143 0.0010265472474431455 0.0005590394893871117 0.0010265472474431455 0.002703366123166438" pbc="F F F"
C       -0.05041359      -0.65160834      -0.03781121       1.01452100       0.74576300       3.20351800
C       -1.26932606       0.29843915       0.00580647       1.67270500       0.59995300       1.37503600
O        1.21222726       0.26391355       0.05161455      -2.53260200      -0.36642300      -2.13993000
H       -0.04978568      -1.20772204       0.96792677       0.29366900       0.48319600      -1.21670100
H        0.07808822      -1.40694124      -0.81848538      -0.21846500       0.28559600      -0.42791500
H       -2.24017097      -0.14567129       0.24733224       0.03490600      -0.17832500      -0.06630600
H       -0.97560789       1.09677700       0.82620066      -0.77026200      -1.37845300      -1.42112400
H       -1.28684283       0.78689839      -0.94856096      -0.51822500       0.68912900      -0.76889700
H        0.94930680       0.89328459      -0.71249873       1.02375300      -0.88043700       1.46231900
9
Lattice="10.0 0.0 0.0 0.0 10.0 0.0 0.0 0.0 10.0" Properties=species:S:1:pos:R:3:forces:R:3 id=SCAN_21 energy=-46.21199103 stress="0.0018518495161404366 -0.0013660416533273134 -0.0007944005570150435 -0.0013660416533273134 0.0020378027975278767 -0.00046770748634806196 -0.0007944005570150435 -0.00046770748634806196 0.00020856626895051494" pbc="F F F"
C        0.02167376      -0.67447211       0.01838968      -0.89795300       3.20312400      -1.05922800
C       -1.22545128       0.27488212      -0.00878151       0.74437700       0.21453300       1.47956100
O        1.05306025       0.35678362       0.03694523       3.45958500      -1.75167000      -1.06154000
H        0.11197697      -1.46583267       0.73841111      -0.02229200      -0.26090000       0.91011300
H        0.00640115      -1.04864630      -0.96235908       0.23654900      -1.39572700      -1.55026600
H       -2.18599120      -0.24138947      -0.09265325      -0.12476900      -0.05703000       0.15722700
H       -1.15637796       0.90270206       0.94486716      -0.48242000      -0.60440400      -1.02492800
H       -1.08657701       0.96854002      -0.87139815      -0.11998300      -0.44993600       0.44118300
H        1.93091037      -0.01993909      -0.45761824      -2.79309600       1.10200900       1.70787900
9
Lattice="10.0 0.0 0.0 0.0 10.0 0.0 0.0 0.0 10.0" Properties=species:S:1:pos:R:3:forces:R:3 id=SCAN_22 energy=-46.27842409 stress="0.004565682650110981 0.0019659630274889606 0.002815532283667686 0.0019659630274889606 0.0010268780474268172 -0.0006840694001968052 0.002815532283667686 -0.0006840694001968052 0.0016944885880586678" pbc="F F F"
C       -0.05272048      -0.63857911      -0.00437772       0.62869100       0.65267800      -0.56291600
C       -1.27110448       0.27444869       0.00970221      -0.16973900       1.50529600       0.16968100
O        1.17017830       0.33268270      -0.00789092      -2.02686600      -1.27273800      -0.54255100
H        0.11455320      -1.19958083       0.94914682      -0.60605400      -0.01356600      -0.71210200
H       -0.16588304      -1.28334570      -0.92313737       0.97984000       0.16788800       0.69663300
H       -2.29348105      -0.08820795       0.27324561       0.89451000      -0.44000700       0.40093400
H       -0.88527538       1.01104352       0.73833865      -0.95685800       0.33280300       0.12107500
H       -1.51759167       0.86861244      -0.92607745       0.93894600      -0.75098800       0.46406300
H        1.93865614      -0.25279886      -0.04967943       0.31753100      -0.18136500      -0.03481600
9