9
Lattice="10.0 0.0 0.0 0.0 10.0 0.0 0.0 0.0 10.0" Properties=species:S:1:pos:R:3:forces:R:3 id=SCAN_0 energy=-46.44263842 stress="0.0029846709394699966 -0.0008588940708127952 -0.000534210766084348 -0.0008588940708127952 -0.000889695918349029 -0.002093870274005686 -0.000534210766084348 -0.002093870274005686 -0.0014503082680358634" pbc="F F F"
C       -0.01917708       0.56528151      -0.01770717       0.90994100      -0.29579700       1.02043500
C       -1.32254101      -0.25786302       0.02110478       1.13409100      -0.11186200      -1.11550500
O        1.20740778      -0.24047001       0.05234389      -0.74733800      -0.05483400      -0.12442000
H        0.11291534       1.27230970      -0.83004524      -0.48697700       0.18440200      -0.65618200
H        0.15881439       1.11662642       0.86968220      -0.37289200       1.02952400       1.23637900
H       -1.08763483      -1.14951348       0.66303058      -0.73148900       0.67795200      -0.27551800
H       -2.29503737       0.28289532       0.19860290       1.00138500      -0.38808500       0.20887900
H       -1.30572545      -0.56583718      -1.04026005      -0.81850100      -0.67876700       0.14023500
H        1.22983760      -0.80042654      -0.73220070       0.11178100      -0.36253400      -0.43430300
9
Lattice="10.0 0.0 0.0 0.0 10.0 0.0 0.0 0.0 10.0" Properties=species:S:1:pos:R:3:forces:R:3 id=SCAN_1 energy=-46.23399085 stress="0.00223148306721316 0.0001813095985977828 -0.0004371802652133669 0.0001813095985977828 -0.000637239357225303 -0.0015761807825775507 -0.0004371802652133669 -0.0015761807825775507 0.002955984963527437" pbc="F F F"
C        0.02687088       0.50290736      -0.02310974      -2.05549200       0.02216400       0.11154100
C       -1.35092483      -0.22290509       0.00589418       0.20103600      -2.97134300       0.55403000
O        1.24926543      -0.21849524       0.06391942      -0.08352600      -1.27382300      -2.72795800
H       -0.19968022       1.18064149      -0.90760072       1.34813200      -0.20439100       0.61932200
H        0.03358977       1.02099884       0.90525202       0.19145200       1.32996900       0.75278300
H       -1.60708310      -1.02509166       0.82750828       1.18482000       1.03865000      -1.15274100
H       -2.20376442       0.41621677       0.15624399      -0.22666300       1.12487600      -0.25683500
H       -1.47462499      -0.72787075      -0.97284569      -0.27749900      -0.05876300       0.22577400
H        1.39009757      -0.73115565      -0.81802265      -0.28226000       0.99266200       1.87408400
9
Lattice="10.0 0.0 0.0 0.0 10.0 0.0 0.0 0.0 10.0" Properties=species:S:1:pos:R:3:forces:R:3 id=SCAN_2 energy=-46.02913312 stress="-0.0017419178159062548 0.0012975036416159895 -0.0023452408125415086 0.0012975036416159895 0.0042712394570974385 0.0020713945996433804 -0.0023452408125415086 0.0020713945996433804 0.00021885227598997058" pbc="F F F"
C        0.00233956       0.67986975      -0.00515952      -0.24436800      -4.11641500      -0.49932200
C       -1.22007353      -0.27149755      -0.00571451       1.17092000      -1.60341400      -1.19756400
O        1.06990171      -0.36290961       0.03167970       1.44329700       2.05667000       0.60679200
H        0.11293927       1.02820913      -1.01781781      -0.36443000       1.18603600      -0.41856800
H       -0.01187197       1.42561787       0.77539712       0.37345300       0.35119100       0.49851000
H       -1.37678449      -1.03501093       0.78488289       0.91512100       0.62444100       0.48620500
H       -2.08392597       0.33694253       0.09281491      -1.53440000       0.42421000      -0.93956400
H       -1.03131475      -1.02571764      -0.91924952      -1.09866700       2.00281300       1.29017000
H        1.91019104       0.16718007      -0.08933223      -0.66092700      -0.92553300       0.17334000
9
Lattice="10.0 0.0 0.0 0.0 10.0 0.0 0.0 0.0 10.0" Properties=species:S:1:pos:R:3:forces:R:3 id=SCAN_3 energy=-46.47838888 stress="-0.0007169309457445804 0.0007434011859474513 -0.0010762546261216797 0.0007434011859474513 0.00042641990348034423 -0.0013568416688757615 -0.0010762546261216797 -0.0013568416688757615 -0.0011891135941359007" pbc="F F F"
C       -0.01321170      -0.50929622      -0.03575009       0.57117200      -2.98202900       0.97700100
C       -1.27942623       0.23952046       0.01421595      -0.67388900       2.68295800      -1.15151800
O        1.18768368       0.22950986       0.07306311      -0.41762400      -0.79783400       2.87429400
H       -0.02389085      -1.34033505       0.77759987       0.36247100       1.38595000      -0.55087700
H        0.03037600      -1.17682080      -0.90627039      -0.09726200       0.23370700      -0.62529200
H       -1.59848415       0.66000661       0.97956725       0.60798700       0.17739700       0.11327000
H       -1.16785863       1.10743276      -0.75015594      -0.45993100      -0.92239000       1.09915500
H       -2.15988501      -0.31143026      -0.28631123      -0.22117600      -0.68981900      -0.46174800
H        1.46155916       0.63083247      -0.71759092       0.32825200       0.91205900      -2.27428500
9
Lattice="10.0 0.0 0.0 0.0 10.0 0.0 0.0 0.0 10.0" Properties=species:S:1:pos:R:3:forces:R:3 id=SCAN_4 energy=-46.35320311 stress="0.0021161774276215926 0.0008019465415482363 -0.000643068926748878 0.0008019465415482363 0.004338104744363026 -0.0004904515456027805 -0.000643068926748878 -0.0004904515456027805 0.001069775939649013" pbc="F F F"
C       -0.02228342      -0.60654872      -0.03339201       1.19222500       1.42227500       3.33539200
C       -1.26466421       0.27789817       0.00855576      -1.65321000      -0.61970300       2.29479400
O        1.18271723       0.25535627       0.06021081      -0.09930700       0.07020600      -0.96927300
H        0.13990493      -1.34838014       0.85275810      -0.54263800       1.35670700      -0.99717700
H       -0.00471187      -1.24041838      -0.86267002       0.03844900      -0.88898300      -2.01208500
H       -1.19272392       0.97652964      -0.79599295      -0.17917500       0.60183400      -0.96776500
H       -2.20079159      -0.38100216      -0.11873584       0.99519900       0.93006300       0.03476600
H       -1.46267760       0.95811805       0.97991201       0.79661900      -1.67728600      -1.72988100
H        1.27388432       0.89564933      -0.71513949      -0.54816300      -1.19511400       1.01123000
9
Lattice="10.0 0.0 0.0 0.0 10.0 0.0 0.0 0.0 10.0" Properties=species:S:1:pos:R:3:forces:R:3 id=SCAN_5 energy=-46.18938614 stress="0.0019782275929213214 -0.0009846916872449723 0.001161195323815825 -0.0009846916872449723 0.00593914545778897 -0.0010482614576920932 0.001161195323815825 -0.0010482614576920932 0.0009311894710179008" pbc="F F F"
C        0.03447768      -0.60611375      -0.01647463      -0.53527600       0.18511700       2.38860900
C       -1.30769727       0.27839376       0.00072114      -0.92490400      -3.85644200      -1.42099700
O        1.16276868       0.31733042       0.05913934      -0.69650900      -0.97910900       0.39327400
H        0.12881369      -1.25950844       0.95797442      -0.52526200       1.18729700      -1.31795000
H        0.14451429      -1.40031207      -0.81546934      -0.29602800       1.07187100       0.15507900
H       -2.13751583      -0.56498277       0.27748920       1.30191900       2.20851200      -0.46164400
H       -1.28181503       1.10015243       0.69246966       0.17117900       0.18676900       0.74038600
H       -1.58307670       0.70465348      -1.01919578       0.41941600      -0.57312900       0.91443700
H        1.43510445       0.28583920      -0.84427816       1.08546500       0.56911500      -1.39119300
9
Lattice="10.0 0.0 0.0 0.0 10.0 0.0 0.0 0.0 10.0" Properties=species:S:1:pos:R:3:forces:R:3 id=SCAN_6 energy=-46.14498976 stress="0.0003866864563849714 0.0010739265432177251 0.002989414486405668 0.0010739265432177251 0.003091456919104733 0.0016099286224212019 0.002989414486405668 0.0016099286224212019 0.0006952604260595139" pbc="F F F"
C       -0.01827534      -0.63193718      -0.03605551       0.49599000       0.70197800      -0.16177500
C       -1.24414656       0.28972807       0.03600665       0.33306900       1.36904700      -2.51507900
O        1.15306840       0.25996212       0.04052203       0.16878700      -3.24169300       1.94365300
H        0.16705416      -1.21955167       0.88712953      -0.55595400       0.16343400      -0.19280600
H       -0.09310974      -1.40828871      -0.87595944       0.56184000       1.09999900       0.46518200
H       -0.82338340       1.25740199       0.46869554      -1.14909600      -1.09615700       0.15044000
H       -1.70212010       0.62179625      -1.03290141       1.19882900      -0.86228700       1.92734000
H       -2.05757179      -0.21169983       0.51755213      -0.77188600       0.07157500       0.87228600
H        1.24053990       0.90917963      -0.60704855      -0.28157800       1.79410400      -2.48924100
9
Lattice="10.0 0.0 0.0 0.0 10.0 0.0 0.0 0.0 10.0" Properties=species:S:1:pos:R:3:forces:R:3 id=SCAN_7 energy=-46.51831783 stress="-0.0027506143472493744 -0.001792224379460874 -0.0004518727776956961 -0.001792224379460874 -0.0014727527348525394 -0.001128265121667665 -0.0004518727776956961 -0.001128265121667665 0.0022654805674218463" pbc="F F F"
C        0.03668720      -0.57141125      -0.05003186      -1.81956000      -0.58977200       3.18092000
C       -1.24402050       0.24897530       0.01333529      -0.57065900       0.34189500      -1.62960200
O        1.13310088       0.25523436       0.06257861       1.80970900       0.20924600       0.59592000
H        0.01270230      -1.15837304       0.99059952       0.32474400       0.49665700      -2.15682000
H        0.04860376      -1.24431620      -0.90282967       0.12023900      -0.44193400      -0.30689200
H       -1.31942100       0.88434321       0.88625799       0.49595700       0.59291200       0.24013000
H       -1.43761652       0.82049104      -0.94656917       0.38083900      -0.10198500       0.86040900
H       -2.12769657      -0.35230493       0.10662042      -0.68881400      -0.97522100      -0.05502100
H        1.21580556       0.83859508      -0.69030732      -0.05245600       0.46820200      -0.72904400
9
Lattice="10.0 0.0 0.0 0.0 10.0 0.0 0.0 0.0 10.0" Properties=species:S:1:pos:R:3:forces:R:3 id=SCAN_8 energy=-46.49567823 stress="-0.002147915501526709 0.0005975433591846855 0.0007761691088583385 0.0005975433591846855 0.0005506072105580434 0.0002758247712910329 0.0007761691088583385 0.0002758247712910329 -0.0017942403869085344" pbc="F F F"
C       -0.00425490      -0.62007905       0.00081402       0.23041000       0.50798000      -0.99981600
C       -1.21223162       0.26234364      -0.01722518       0.52158300       1.62707200       1.77878800
O        1.07678673       0.31896313       0.01555730       0.01844300       0.51009100       0.31396800
H       -0.05393553      -1.28495470       0.87046483       0.28878400      -0.00906200       0.35912400
H       -0.00999439      -1.25873618      -0.88846431       0.33766600      -0.20987600      -0.31691000
H       -2.09407988      -0.29380547       0.16135385      -1.28744400      -0.56989800       0.29622600
H       -1.04350751       1.02593487       0.79443411      -0.39747400      -0.84867500       0.16666100
H       -1.37012118       0.99088453      -0.79001867       0.22778300      -0.21860100      -1.49618600
H        1.96674824       0.01799477      -0.19927056       0.06024900      -0.78903200      -0.10185500
9
Lattice="10.0 0.0 0.0 0.0 10.0 0.0 0.0 0.0 10.0" Properties=species:S:1:pos:R:3:forces:R:3 id=SCAN_9 energy=-46.13066711 stress="0.0039806847242693216 0.0029554669182699886 0.0003671692573483344 0.0029554669182699886 0.005410414736717147 -0.00014449093626419746 0.0003671692573483344 -0.00014449093626419746 0.005155143254977647" pbc="F F F"
C       -0.04348912      -0.62691430      -0.01695066       0.50766400       1.32048400      -1.50486100
C       -1.26072403       0.29571713       0.03677633      -1.79947100       0.30438900      -2.84288800
O        1.22329745       0.23907560       0.04557161      -1.33623700      -0.58206800      -0.26536600
H       -0.18001710      -1.29035954       0.87514751       1.09483400       0.22114400      -0.60466700
H        0.00371575      -1.20623156      -1.03062779      -0.15453700       0.58738700       1.73486800
H       -2.23340331      -0.30612726      -0.39058873       1.81332200       1.16322500       1.72539500
H       -1.34034095       0.84158215       1.00439394      -0.39798300      -0.62355300      -0.38306000
H       -1.25016912       1.12604645      -0.79242852       0.43672700      -1.12517200       1.20778900
H        1.11463900       0.98429442      -0.62521182      -0.16431800      -1.26583700       0.93279000
9
Lattice="10.0 0.0 0.0 0.0 10.0 0.0 0.0 0.0 10.0" Properties=species:S:1:pos:R:3:forces:R:3 id=SCAN_10 energy=-46.43525838 stress="0.002038289635239696 -0.0013269947722357879 -0.00039420123337253484 -0.0013269947722357879 -0.0001851044361463198 0.0008419858225907775 -0.00039420123337253484 0.0008419858225907775 -0.003067982603282286" pbc="F F F"
C        0.01040970       0.59613387      -0.00349384      -0.66363400      -0.31758000       1.63664000
C       -1.24339396      -0.27999993      -0.00060794      -1.73626000       3.63474200       0.39751400
O        1.11254964      -0.32442469       0.01416431      -0.37479000      -0.32430300       0.66993400
H        0.07945242       1.19194649      -0.86582864      -0.08485100       0.87265200      -1.75228100
H       -0.10763483       1.38848262       0.82983607       0.74695200      -1.21800000      -0.35197900
H       -1.45735356      -0.73540303       0.94197202       0.21290400      -0.72510300       0.75262100
H       -2.19518117       0.37959913      -0.18433858       1.47548000      -0.60451000       0.33336800
H       -1.27754980      -0.91733675      -0.81196395       0.25849600      -1.91380100      -1.65709800
H        1.98222920       0.07741411      -0.08563565       0.16570200       0.59590300      -0.02871900
9
Lattice="10.0 0.0 0.0 0.0 10.0 0.0 0.0 0.0 10.0" Properties=species:S:1:pos:R:3:forces:R:3 id=SCAN_11 energy=-46.28689721 stress="0.0015545976440202466 0.00260469410539535 -0.0010135836329886857 0.00260469410539535 0.00016760324455734313 0.002667109196654182 -0.0010135836329886857 0.002667109196654182 0.0044520996670381575" pbc="F F F"
C        0.03475440       0.56153181      -0.00523138      -1.03000200       0.44579700      -0.33212000
C       -1.33039853      -0.25105471      -0.00932350       2.06021900       0.44839700      -2.67942500
O        1.16464960      -0.31548716       0.05324027       0.90326100       0.23582400      -0.51662100
H        0.13931802       1.11242692      -1.02046362      -0.50224400      -0.11118200       1.66087500
H       -0.00232599       1.25804615       0.95439925       0.22389400      -0.81990100      -1.84935900
H       -2.10622881       0.46342421      -0.02506872      -1.19624200       1.34075500      -0.48900700
H       -1.45427220      -0.91688077      -0.95747070       0.31928400       0.69829100       1.81661900
H       -1.49401415      -0.66826450       0.93355969       0.06878200      -1.70553500       1.49099700
H        1.86070150       0.06146054      -0.55661514      -0.84695200      -0.53244800       0.89804100
9
Lattice="10.0 0.0 0.0 0.0 10.0 0.0 0.0 0.0 10.0" Properties=species:S:1:pos:R:3:forces:R:3 id=SCAN_12 energy=-46.18973456 stress="-0.0005445591882150625 -0.0014922075187979176 -0.0014449592947149814 -0.0014922075187979176 0.0007170932249818535 0.0008611971876802462 -0.0014449592947149814 0.0008611971876802462 -0.0023373765110428955" pbc="F F F"
C       -0.00897502      -0.54289274      -0.01412365       1.48957300       1.71178700      -1.85278400
C       -1.34060340       0.24813931       0.00807325       1.75107300      -0.18463500      -1.75344200
O        1.22138187       0.23695438       0.05672216      -0.05455500      -0.92208900       2.76811400
H       -0.04131989      -1.17001388       0.86853785       0.38934300      -0.47109900       0.20823100
H        0.22180200      -1.12162597      -0.95947917      -1.26839100      -0.10822000       0.75531700
H       -1.90036337      -0.56846715      -0.41015670      -1.80037000      -0.08195500       0.32440800
H       -1.51785125       0.65345922       0.96452745      -0.73950700      -0.26530800       1.66309700
H       -1.45982307       1.15467012      -0.61456259       0.50937200      -0.48642400      -0.56338600
H        1.38253801       0.80091826      -0.67704762      -0.27653900       0.80794400      -1.54955600
9
Lattice="10.0 0.0 0.0 0.0 10.0 0.0 0.0 0.0 10.0" Properties=species:S:1:pos:R:3:forces:R:3 id=SCAN_13 energy=-46.30442928 stress="0.003745342381168767 0.0003418599378428778 -0.00047599621046723496 0.0003418599378428778 0.0022685264238752776 0.00027131840170214523 -0.00047599621046723496 0.00027131840170214523 0.0011307679668271441" pbc="F F F"
C        0.01266106      -0.60814980       0.00040345      -0.41905900       2.78704500      -3.12191200
C       -1.30443305       0.26322414       0.00884776      -1.58222200      -0.63985500       2.08477000
O        1.20311319       0.28068681       0.06921310      -0.56677300      -0.55467300      -0.46662900
H        0.11051726      -1.39957984       0.70050406       0.00266200      -0.62995600       0.92507400
H        0.01457069      -0.97035887      -1.07482759       0.09398200      -0.59013500       1.14840400
H       -2.25621409      -0.29364705       0.43861820       1.78757500       0.66587500      -0.38362000
H       -1.25557967       1.24835615       0.57385407       0.32873300      -1.10626000      -0.31161800
H       -1.67346108       0.51105836      -0.97719419       0.33485200       0.14833900      -0.74569400
H        1.34679532       0.55643860      -0.86956924       0.02024900      -0.08038000       0.87122500
9
Lattice="10.0 0.0 0.0 0.0 10.0 0.0 0.0 0.0 10.0" Properties=species:S:1:pos:R:3:forces:R:3 id=SCAN_14 energy=-46.31562399 stress="-7.259499264314818e-05 -0.00034209087368053544 0.0011417030908156913 -0.00034209087368053544 9.052060685268489e-05 -0.00014890992472532278 0.0011417030908156913 -0.00014890992472532278 -0.002757910671417532" pbc="F F F"
C        0.03627340      -0.64583944      -0.02015821      -0.81547000       1.41532900       1.45788700
C       -1.24516637       0.26074629       0.02917355       0.34295200      -1.14685500      -1.87710600
O        1.15651217       0.29012142       0.01683357       0.89133500      -3.21138300       0.35178200
H        0.20128305      -1.29327216       0.86694306      -0.49350400       0.25038500      -0.10832000
H       -0.10844435      -1.33081477      -0.85926647       0.75716400       0.11157900      -0.72906800
H       -2.13543981      -0.33869593      -0.15842450      -0.37137900      -0.11737900       0.13977400
H       -1.37155400       0.86049613       0.87219986      -0.07277100       0.58345100       2.20316800
H       -1.27096844       1.06070198      -0.76000424       0.43249600      -0.77857100      -0.18007500
H        0.72451754       1.02238546      -0.33595283      -0.67082300       2.89344400      -1.25804200
9
Lattice="10.0 0.0 0.0 0.0 10.0 0.0 0.0 0.0 10.0" Properties=species:S:1:pos:R:3:forces:R:3 id=SCAN_15 energy=-46.39481651 stress="0.0007646847320667133 -0.0009399275837941375 -0.0007481509743922485 -0.0009399275837941375 -0.0008741982511894608 -0.0010033787655678668 -0.0007481509743922485 -0.0010033787655678668 0.0005318702001621418" pbc="F F F"
C        0.01049539       0.54753096       0.00590271      -0.99974500      -1.83663800      -2.66008300
C       -1.29975919      -0.24886425       0.01090673      -0.58609300       0.66633100      -1.24765100
O        1.18968630      -0.24995578       0.06927469       1.10696200      -0.79695500      -2.67421900
H       -0.02689672       1.07886761      -0.96717449       0.22158100       0.30319500       0.32731000
H       -0.02060706       1.22237511       0.77679686       0.43695500       1.90863100       2.17886100
H       -1.56769142      -0.83197644       0.87209313      -0.03650300       0.11685800       1.12836700
H       -2.14344458       0.45817513      -0.30208619       0.75034000      -0.86315000       0.53169200
H       -1.22506963      -1.02146808      -0.75059906      -0.06483900      -0.16089700      -0.66866800
H        1.45356780      -0.49516696      -0.92861695      -0.82865700       0.66262500       3.08439100
9
Lattice="10.0 0.0 0.0 0.0 10.0 0.0 0.0 0.0 10.0" Properties=species:S:1:pos:R:3:forces:R:3 id=SCAN_16 energy=-46.39098464 stress="-0.0024563958485643634 0.0009106112154298638 0.00017737744784847631 0.0009106112154298638 0.001547151523633068 0.00042354256777331204 0.00017737744784847631 0.00042354256777331204 -0.00043482721627290897" pbc="F F F"
C       -0.02955971      -0.60035751      -0.00980584       1.06274400       0.33102800       0.73401700
C       -1.24481377       0.30322119       0.01730568       1.49766800      -1.28233200      -0.01483600
O        1.15698149       0.23173444       0.01734377       1.11351100      -1.03759300       0.33132700
H        0.10037490      -1.31157602       0.85694123      -0.27903600       0.82425100      -0.20595200
H       -0.03122595      -1.30077704      -0.86134859       0.05468500       0.34705500      -0.46506700
H       -2.06719331      -0.36260466       0.01396656      -1.61927000      -0.39589400       0.46561500
H       -1.12556479       0.95698768       0.88247955      -0.55146200       0.33479800      -0.15401500
H       -1.20667636       0.72306962      -0.97026226      -0.31706900       1.20049900      -0.43557100
H        1.14189639       1.15505787      -0.28633401      -0.96177100      -0.32181000      -0.25551700
9
Lattice="10.0 0.0 0.0 0.0 10.0 0.0 0.0 0.0 10.0" Properties=species:S:1:pos:R:3:forces:R:3 id=SCAN_17 energy=-46.28883373 stress="-0.0018741629112654697 0.00329212143750188 0.00036532177064707295 0.00329212143750188 0.0006206931165325865 -0.0003248018934018389 0.00036532177064707295 -0.0003248018934018389 -0.0019481123113889343" pbc="F F F"
C        0.06290648       0.58955229       0.00666911      -2.03694200      -0.03446500      -0.99512600
C       -1.31211923      -0.21738516      -0.01099314       3.49265100      -0.50597100       1.73708800
O        1.09337336      -0.35279241       0.02985828       2.19470700      -0.05995400      -1.25253600
H        0.12999598       1.23828805      -0.89969528      -0.05237000      -0.14514300       0.26172000
H        0.24181502       1.21574854       0.87740565      -0.78898400       0.52133500       0.48166600
H       -0.98498102      -1.28746551       0.04304379      -0.20574700       0.51290000       0.49052200
H       -1.81480019       0.07206822       0.88297260      -1.11485000      -0.02959400       0.58458600
H       -1.86111095      -0.22335943      -0.88672792      -1.35981600       0.83633000      -1.93725100
H        1.81061478       0.15246139      -0.43938598      -0.12864900      -1.09543900       0.62933000
9
Lattice="10.0 0.0 0.0 0.0 10.0 0.0 0.0 0.0 10.0" Properties=species:S:1:pos:R:3:forces:R:3 id=SCAN_18 energy=-46.16650261 stress="-0.0003441817792377064 0.001713581364474745 0.0014464572569051935 0.001713581364474745 0.0008347394304956269 -0.004729528506174543 0.0014464572569051935 -0.004729528506174543 -0.002544426093275821" pbc="F F F"
C       -0.04296076      -0.57012755      -0.04355443       1.85596200      -1.24953000      -0.65743800
C       -1.21039773       0.28032885       0.01171754      -3.18167400      -0.13445300      -1.47351800
O        1.12556463       0.30746815       0.00510892       0.78576600      -1.14105900       0.63901500
H       -0.08140117      -1.38201167       0.77415410       0.23220700       1.12225800      -0.71569500
H       -0.04728556      -1.08611248      -0.98955298       0.42939300      -0.73313600      -0.77051200
H       -2.14584917      -0.35369058       0.02191341       0.58994100       0.20301400      -0.64598400
H       -1.20918260       0.48652066       1.00797042      -0.34917500       2.27067000       3.09450500
H       -1.40186637       1.14758777      -0.69971937       0.77459600      -0.97130500       0.82170900
H        1.94558219      -0.24145292       0.18322849      -1.13701600       0.63354100      -0.29208300
9
Lattice="10.0 0.0 0.0 0.0 10.0 0.0 0.0 0.0 10.0" Properties=species:S:1:pos:R:3:forces:R:3 id=SCAN_19 energy=-46.35765329 stress="-0.002473996904299354 0.0012856260497494335 -0.0013813208676674755 0.0012856260497494335 -0.0003181609276918991 -0.002094687911701177 -0.0013813208676674755 -0.002094687911701177 0.0020320481261138124" pbc="F F F"
C       -0.01861661       0.53179523       0.02112186       1.72901500       1.37899100      -1.20740700
C       -1.27824732      -0.22028357      -0.02674771      -0.58390400      -3.26108000      -0.95787300
O        1.15524763      -0.28281625       0.05689112       0.45170600      -0.93174300      -0.03418800
H        0.21671167       1.22615069      -0.86265922      -1.23369600      -0.42968200       0.83321600
H        0.06366999       1.13604804       0.88723956      -0.24243400       0.99461400       1.27795200
H       -2.13767978       0.29301449       0.38650828      -0.43974500       0.59173700      -0.42676500
H       -1.38763249      -0.60979099      -1.10999640      -0.54333000       0.52386700       1.45721500
H       -1.26905929      -1.19198764       0.62526310       0.49256300       1.43928400      -0.88476800
H        1.62090829      -0.07405129      -0.76227261       0.36982400      -0.30599000      -0.05738200
9
Lattice="10.0 0.0 0.0 0.0 10.0 0.0 0.0 0.0 10.0" Properties=species:S:1:pos:R:3:forces:R:3 id=SCAN_20 energy=-46.55091728 stress="-8.94408257739071e-05 -0.002461663682266609 -0.0001582909129415253 -0.002461663682266609 -0.00014140138924688522 -0.00013479163108257486 -0.0001582909129415253 -0.00013479163108257486 -0.002328426186956379" pbc="F F F"
C       -0.02566372       0.58220987      -0.01266190       0.40298100       0.72154400      -0.43248900
C       -1.22253969      -0.28971497       0.00431324      -1.89539600       1.15034200      -0.96845300
O        1.13164347      -0.25385002       0.06195943       0.53799000       0.36646000       0.67174800
H       -0.10519800       1.30031468      -0.85458574       0.53360500      -0.47400000      -0.44771200
H        0.05782752       1.27826363       0.80645420      -0.02387700       0.13586300       1.00211500
H       -1.26632305      -0.86978513       0.89506440      -0.03183700      -0.80490500       0.85612800
H       -2.21674148       0.30417176      -0.07487438       1.35224900      -0.81579000      -0.06201100
H       -1.06827580      -0.91745636      -0.88063119      -0.64119100      -0.39388100       0.00860300
H        1.50085187      -0.54941122      -0.77536239      -0.23452500       0.11436700      -0.62793000
9
Lattice="10.0 0.0 0.0 0.0 10.0 0.0 0.0 0.0 10.0" Properties=species:S:1:pos:R:3:forces:R:3 id=SCAN_21 energy=-46.42859215 stress="0.0014804609986230053 -0.0013072965694345003 0.0011435256114804494 -0.0013072965694345003 0.0018762725413500182 -0.0015514768894573049 0.0011435256114804494 -0.0015514768894573049 0.0014631782598534344" pbc="F F F"
C       -0.00989489       0.60305889       0.01709820      -0.60049800       0.72208700      -0.36156200
C       -1.26757328      -0.27604972       0.01339274      -0.37251400      -0.04579700      -1.27320700
O        1.16891723      -0.29109344       0.05362650      -0.97466300       1.36770700      -0.80017100
H       -0.07087024       1.29120755      -0.93978741       0.59105900      -1.09049900       1.49972200
H        0.05441931       1.28594345       0.88156588       0.00745000      -0.19814400      -0.00509100
H       -2.26072901       0.18626281       0.28398786       1.00747700      -0.26593900       0.25457900
H       -1.40307611      -0.57624841      -1.05169256      -0.10434600      -0.03407300       0.28461300
H       -1.02668149      -1.22651951       0.50512201      -0.37422400       0.17943200       0.53888000
H        1.36596733      -0.23442385      -0.89333770       0.82025900      -0.63477400      -0.13776300
9
Lattice="10.0 0.0 0.0 0.0 10.0 0.0 0.0 0.0 10.0" Properties=species:S:1:pos:R:3:forces:R:3 id=SCAN_22 energy=-46.23127622 stress="0.0003708767137691091 -0.0010010194751182827 0.002140644143395055 -0.0010010194751182827 -0.0021589816972069 1.1852625830052307e-05 0.002140644143395055 1.1852625830052307e-05 0.0032497915226101393" pbc="F F F"
C        0.01053853       0.57992066      -0.02255926      -1.35115200       0.26963800      -0.49252200
C       -1.27187204      -0.28777420       0.02242952      -0.59143600       2.73117000       0.42867200
O        1.15616533      -0.26213620       0.06835026       0.34781100      -0.11556900      -1.93027000
H       -0.06713483       1.08931629      -0.99856060       0.65420400       0.50619400       0.16046600
H        0.03052304       1.28088292       0.81628734       0.13182400       0.27517100      -0.06813200
H       -2.20509725       0.27795816      -0.41041091       1.44167100      -0.74584300       1.04290100
H       -1.02884806      -1.02913193      -0.70617163      -0.28649900      -1.56621600       0.06254900
H       -1.32721642      -0.44517205       1.12107161      -0.76985500      -1.19425400      -0.77562600
H        1.26707277      -0.49209957      -0.90543909       0.42343300      -0.16029100       1.57196100
9