9
Lattice="10.0 0.0 0.0 0.0 10.0 0.0 0.0 0.0 10.0" Properties=species:S:1:pos:R:3:forces:R:3 id=SCAN_0 energy=-53.61715006 stress="-0.000532076169963296 -0.0004452879855678893 -0.0003942886145002971 -0.0004452879855678893 0.0017241981714978725 -0.0009115786493443758 -0.0003942886145002971 -0.0009115786493443758 0.0017102920891654046" pbc="T T T"
C        0.03351401       0.80750806       1.05105134      -1.94891700       0.63710800       0.49192600
C        0.24417401       0.74951506      -0.49041168       0.80857100      -1.56588900       1.73604300
C        0.01388901      -0.75203496      -0.86610169      -1.39248000       2.19932500      -1.50643800
O       -0.82416901      -0.99916297      -1.70856970      -0.56570300      -0.22941400      -0.55936800
O        0.58880902       0.25447406       2.00118536      -0.11323500       0.61518100      -1.68977800
H       -1.00149301       1.38168007       1.20242835       1.43943800      -0.62724600       0.29903500
H       -0.47233000       1.40229008      -0.97989269      -0.31217400      -0.11636700      -0.18578500
H        1.24727903       1.04238907      -0.78578369       0.60332800      -0.01859600       0.01799700
H        0.49012002      -1.59246198      -0.44369068       1.48117100      -0.89410200       1.39636800
9
Lattice="10.0 0.0 0.0 0.0 10.0 0.0 0.0 0.0 10.0" Properties=species:S:1:pos:R:3:forces:R:3 id=SCAN_1 energy=-53.32815404 stress="0.0031133022010453246 -0.00026158788897489324 -0.0020685484714819775 -0.00026158788897489324 0.005570010125065982 0.0006595465108412098 -0.0020685484714819775 0.0006595465108412098 0.0006451348662695454" pbc="T T T"
C       -0.22941464      -0.35476085       1.37249384      -3.49003400       0.48927000       1.30997400
C        0.05628636      -0.83260786      -0.01052219       1.57765900      -0.13588000      -1.77540700
C        0.88526638       0.27541016      -0.89670120       1.25710000      -0.84730000       0.74093200
O        0.57486337       0.46889316      -2.04026822      -0.67872400       0.13583300      -0.83206300
O       -1.22565566       0.39483316       1.63925084       2.70910200      -1.44749500      -0.91627600
H        0.27727537      -0.82544086       2.25572285       0.42957300       0.33826100      -0.45193100
H        0.50546837      -1.89838688      -0.17039019       0.14008900       1.74403300       0.85893000
H       -0.79142165      -0.94197086      -0.68747820      -0.83110000       0.44161800       0.42112300
H        1.85791740       0.81636917      -0.57331320      -1.11366400      -0.71834000       0.64471700
9
Lattice="10.0 0.0 0.0 0.0 10.0 0.0 0.0 0.0 10.0" Properties=species:S:1:pos:R:3:forces:R:3 id=SCAN_2 energy=-53.484689 stress="0.0026652492269346687 0.0017626957997863204 -0.001988775743344064 0.0017626957997863204 0.0032123112603092106 0.0016409614057950933 -0.001988775743344064 0.0016409614057950933 0.0008621771046130098" pbc="T T T"
C        0.21611825       0.17014108       1.45990835       0.35267200      -0.16276400      -1.23356000
C       -0.55784677      -0.51716893       0.30465433      -2.19147300      -0.96968900       3.63708400
C       -0.39664276      -0.07394392      -1.03997369       0.02184100       0.71927600      -3.13088100
O       -0.15322076      -0.79337993      -2.03376171      -0.35469200       0.98232800       1.70195600
O        0.87650126       1.20511210       1.33574535      -0.96681000      -1.56081200       0.83933300
H        0.04896324      -0.53199993       2.35510836       0.61979600       1.22557600       0.03109200
H       -0.56633577      -1.60582095       0.43349033       0.82901300      -0.36508700      -0.15300300
H       -1.65234078      -0.43285593       0.80584134       1.47211300       0.58913900      -1.41665000
H       -0.51761276       1.04862710      -1.14397070       0.21754000      -0.45796700      -0.27537200
9
Lattice="10.0 0.0 0.0 0.0 10.0 0.0 0.0 0.0 10.0" Properties=species:S:1:pos:R:3:forces:R:3 id=SCAN_3 energy=-53.25921161 stress="-0.002325860926705641 -0.00423797221345648 -0.002640432986650157 -0.00423797221345648 0.0013077022675276825 0.00010619927777690363 -0.002640432986650157 0.00010619927777690363 -0.0012653473865994387" pbc="T T T"
C        1.02938285      -0.14579883       0.83333432       0.38963200      -1.18241100       0.99338900
C       -0.41870517       0.15290218       0.72321431      -1.70159000       2.42040300      -0.26717500
C       -0.80945618       0.85922719      -0.66606271       3.61735800       0.37735200       3.89200600
O       -1.48228219       0.35532318      -1.46698772      -2.82187500      -1.52474900      -3.11972500
O        1.66277086      -1.18359584       0.62001331      -1.00447200       0.68522400      -0.41780000
H        1.48005586       0.65554719       1.38837233       1.30559700       1.11877000       0.21240200
H       -1.07356118      -0.72100384       0.73507831      -0.13075900      -0.07669200       0.55799900
H       -0.67343818       1.11332420       1.47721933       0.44084100      -2.75670800      -1.35248700
H       -0.23072117       1.78217121      -0.76143471      -0.09473300       0.93881000      -0.49860900
9
Lattice="10.0 0.0 0.0 0.0 10.0 0.0 0.0 0.0 10.0" Properties=species:S:1:pos:R:3:forces:R:3 id=SCAN_4 energy=-53.51460347 stress="0.0022820829816966957 0.0002325523885212843 -0.00019145205092734307 0.0002325523885212843 -0.0018683395832510205 0.000890076650405708 -0.00019145205092734307 0.000890076650405708 -0.0003564151371244376" pbc="T T T"
C        1.11539049       0.79806283       0.64928274       0.15118000      -0.42762000       0.62198600
C       -0.27213453       0.70658683       0.03292773      -0.14464800       1.08831500      -0.83569200
C       -0.70228654      -0.53716519      -0.67388029       2.69359900      -1.72017500       0.75518300
O       -1.76420056      -0.75767119      -1.19071230      -0.89190500      -0.07934500      -0.13854400
O        1.60822750      -0.15373818       1.22760375       0.14368400      -0.28212300       0.11880000
H        1.76767950       1.72861285       0.56711074      -0.89456800      -0.17197100      -0.25507400
H       -1.09821655       1.27272184       0.49462473       0.26850800       0.00157000       0.16878400
H       -0.12707553       1.17070884      -0.95228829       0.04942200       1.19369300      -0.32498800
H        0.25451948      -1.22698720      -0.79412729      -1.37527200       0.39765700      -0.11045700
9
Lattice="10.0 0.0 0.0 0.0 10.0 0.0 0.0 0.0 10.0" Properties=species:S:1:pos:R:3:forces:R:3 id=SCAN_5 energy=-53.29770612 stress="-0.005871780849793311 -0.0030294350429208314 -0.0015042161823561168 -0.0030294350429208314 -0.0018225768383400443 0.000427287473248842 -0.0015042161823561168 0.000427287473248842 0.002444000211440359" pbc="T T T"
C        0.02623889       0.06721437       1.20482938       1.52163100      -0.51188900      -0.56387600
C       -0.34620011      -0.56638664      -0.09429164      -1.04008100      -1.14924500      -0.92557800
C       -0.19462711       0.13839838      -1.48579766      -2.39233000      -0.38408800       1.30037600
O        0.84809591       0.43194938      -1.95909067       3.14329000       0.91673400      -0.67459500
O       -0.40374411      -0.06129063       2.33284340      -1.08337800      -0.14151300      -0.17020000
H        0.97747491       0.50803238       1.02719438       1.59051400       1.52305800       0.30484100
H        0.47747290      -1.27982465      -0.44161064      -0.80198800      -0.04579500       1.44382200
H       -1.32909213      -1.04643964       0.10411837       0.29191900      -0.18292500      -0.81988200
H       -1.05092612       0.23128138      -2.15327367      -1.22957700      -0.02433800       0.10509200
9
Lattice="10.0 0.0 0.0 0.0 10.0 0.0 0.0 0.0 10.0" Properties=species:S:1:pos:R:3:forces:R:3 id=SCAN_6 energy=-53.4707651 stress="0.0019567068694552755 0.0018603192440242607 -0.0020018704294901667 0.0018603192440242607 -0.002290746196363422 0.002485849530129406 -0.0020018704294901667 0.002485849530129406 -0.0011731540553010173" pbc="T T T"
C        1.16580591       0.02213806       0.61963226      -3.14320300       4.30853400      -2.00115700
C       -0.43762412       0.14742907       0.54652826       2.37162100      -0.35941400      -1.71532000
C       -0.73117513       0.12726207      -0.98316977      -2.06115900       0.97357000       1.45479300
O       -1.87297315       0.39430207      -1.35078977       0.91414800      -0.24490200      -0.46706300
O        1.88067592      -0.68644395       1.19740627       2.21013400      -3.43672200       2.38882100
H        1.65414892       0.90106908       0.02926025      -0.65894100      -0.55515600       0.09300000
H       -1.05894713      -0.67700195       0.85906626      -0.02009300      -0.61283100       0.88061500
H       -0.74120513       1.08407908       1.02737627      -0.04315700       0.07606800      -0.12769800
H        0.05939589      -0.20593694      -1.66023478       0.43064800      -0.14914600      -0.50599100
9
Lattice="10.0 0.0 0.0 0.0 10.0 0.0 0.0 0.0 10.0" Properties=species:S:1:pos:R:3:forces:R:3 id=SCAN_7 energy=-53.71183961 stress="0.003742265317169706 0.0004191672698760678 -0.0012429029197827627 0.0004191672698760678 -7.720746788717591e-05 0.0016586935332217276 -0.0012429029197827627 0.0016586935332217276 0.002798443031681018" pbc="T T T"
C       -0.08985509      -0.64603028       1.00612166      -0.98296900      -0.67978700       1.12616800
C       -0.33776909      -0.45058428      -0.53560237       0.90409600      -2.97610800       0.95281400
C        0.78733793       0.36044973      -1.04885638       0.86464500       0.28512400      -0.49370800
O        0.68059093       1.54286275      -1.28233738      -0.23730300       1.11581000      -0.28292200
O       -1.02791610      -0.84954029       1.80416967       1.98082800       0.50235800      -1.58063000
H        1.01192893      -0.59165728       1.36713866      -1.14876000      -0.08507100      -0.29496000
H       -0.28689509      -1.54421630      -1.01318038      -0.22710000       1.92780800       0.90997700
H       -1.33053411      -0.03264627      -0.57677537      -0.43661600       0.36213400      -0.57135500
H        1.83475295      -0.06962227      -1.17287938      -0.71682100      -0.45226700       0.23461500
9
Lattice="10.0 0.0 0.0 0.0 10.0 0.0 0.0 0.0 10.0" Properties=species:S:1:pos:R:3:forces:R:3 id=SCAN_8 energy=-53.59148003 stress="-0.0001253794353207429 -0.00033863307762479615 -0.0005391790073485511 -0.00033863307762479615 0.0006060505361232644 0.0014322765481711865 -0.0005391790073485511 0.0014322765481711865 0.000256307572254396" pbc="T T T"
C        0.28544874       0.46281237       1.03625949      -0.33010800       0.18308300      -1.39073700
C        0.63896775      -0.42659065      -0.30083153       2.35504700       2.00828100       2.19772500
C       -0.23562327      -0.13988765      -1.46491655       2.62844000      -0.69000000       0.31332700
O       -1.42334829      -0.13570765      -1.45888155      -2.83690500       0.16279300       0.17658700
O        0.75896575       0.22866036       2.12099051       0.12927300      -0.14495500       0.02757800
H       -0.43648627       1.34277038       0.88683349       0.45968300      -0.69976600      -0.05066600
H        1.80866077      -0.20368565      -0.50593653      -2.40891800      -0.44067900       0.23334300
H        0.60706175      -1.40955267       0.14859748      -0.23444700      -0.79269200      -0.25840400
H        0.36365374       0.02957336      -2.35174856       0.23793500       0.41393600      -1.24875200
9
Lattice="10.0 0.0 0.0 0.0 10.0 0.0 0.0 0.0 10.0" Properties=species:S:1:pos:R:3:forces:R:3 id=SCAN_9 energy=-53.44404927 stress="-0.00043048312592129423 -0.0032059261964734317 -0.0003557410541388422 -0.0032059261964734317 -0.0014050261193275803 -0.0011318602309241736 -0.0003557410541388422 -0.0011318602309241736 -0.0030432100535616553" pbc="T T T"
C        0.76001010       1.14654636       0.41391648       0.92373400       0.72865700       1.50800200
C        0.25387709       0.36817335      -0.68866954       0.00329100       0.13498300      -3.41591600
C       -0.60029992      -0.69338967      -0.29156753      -1.67091900      -4.65441900       1.82211300
O       -1.48573894      -1.27735468      -0.91076754      -0.17502900       1.17372600      -0.92874400
O        1.09183211       0.55985135       1.44415250       0.09017200       1.08974900      -0.19751300
H        0.87118210       2.25535538       0.21704248      -0.01486900      -0.32809700       0.55504700
H       -0.34641492       0.84797136      -1.51522655       1.22329300       0.26175100       0.27925400
H        1.15377911      -0.24080566      -1.05983854      -0.76500100       0.87197700      -0.16517800
H       -0.35147192      -1.25465868       0.63589849       0.38532700       0.72167300       0.54293600
9
Lattice="10.0 0.0 0.0 0.0 10.0 0.0 0.0 0.0 10.0" Properties=species:S:1:pos:R:3:forces:R:3 id=SCAN_10 energy=-53.28213893 stress="0.0002072555520340795 -0.0013516112842282713 3.83977641424338e-05 -0.0013516112842282713 0.001629477029003468 0.0007597289738207619 3.83977641424338e-05 0.0007597289738207619 -0.0020785910596655237" pbc="T T T"
C        0.50124050      -0.83683132       1.09192864      -0.40061900       1.02234200       2.21633200
C        0.57231951      -0.09886231      -0.13750938       0.35299900      -0.15675100      -4.26690400
C       -0.58533651      -0.04990031      -1.26089540      -0.39074800      -1.16400200       3.22507200
O       -0.79304252       0.99368671      -1.81386141      -0.14306500       0.23900600      -1.14791500
O        0.34156250      -0.10688331       2.08509666      -0.01796200      -1.37298400       0.29119300
H        0.66871751      -1.94792734       1.19754265      -0.18596800       0.43666200      -0.27106600
H        0.56345451       0.97880271      -0.01476738       0.87886700       0.26309200       0.69054000
H        1.45296952      -0.48117432      -0.73662139      -0.31534100       0.51970000       0.35225400
H       -1.33301953      -0.88861632      -1.10169539       0.22183700       0.21293400      -1.08950500
9
Lattice="10.0 0.0 0.0 0.0 10.0 0.0 0.0 0.0 10.0" Properties=species:S:1:pos:R:3:forces:R:3 id=SCAN_11 energy=-53.61936225 stress="0.001309069158026251 -0.00033954433795717516 0.00011742151118524173 -0.00033954433795717516 0.0002043033182175367 -0.0001821459608206511 0.00011742151118524173 -0.0001821459608206511 0.0014455147890271851" pbc="T T T"
C        0.60612699       0.02007597       0.87849740      -1.04377300      -1.77786900       2.00701400
C        0.41702199       0.68058399      -0.47968962       1.55857800      -2.87868600      -0.57164900
C       -0.79591903       0.03676798      -1.11009363      -1.51061800       1.40093900       0.53611400
O       -1.01136004      -1.12572505      -1.34359963       0.55260200      -1.04727500      -0.29094400
O        0.81001499       0.47729798       1.99945642       0.08316200       0.27091900      -1.47988300
H        0.40864599      -1.16865005       0.81148440       0.50580300       1.87302000      -0.27788400
H        0.40168299       1.71828700      -0.65355962       0.15996200       1.59878100       0.43599900
H        1.36119500       0.20456398      -0.92709063      -0.87313000       0.65310800      -0.14139600
H       -1.68162005       0.75637899      -1.17059863       0.56741500      -0.09293600      -0.21737100
9
Lattice="10.0 0.0 0.0 0.0 10.0 0.0 0.0 0.0 10.0" Properties=species:S:1:pos:R:3:forces:R:3 id=SCAN_12 energy=-53.67293146 stress="-0.0030302838881619515 0.001383911093954717 0.001020898681684221 0.001383911093954717 5.5880231204032814e-05 0.00043209967678489795 0.001020898681684221 0.00043209967678489795 -0.004181580178504125" pbc="T T T"
C       -0.36924750      -0.62282510       0.93693800       0.89315000      -0.57605100      -2.55863300
C        0.61196852       0.38242191       0.35632399      -0.14649300       0.89917600       0.68927800
C        0.21123751       0.56441892      -1.02967104      -1.01758000      -0.29873400      -2.79293800
O        0.71018052       0.07433891      -2.05500106      -0.31645400       0.65155900       1.47821200
O       -1.09959551      -0.38244910       1.82514401      -2.08497000       0.92289600       3.33360000
H       -0.59404950      -1.54138612       0.34936499       0.80668100      -0.31660700      -0.26420200
H        0.53331852       1.37568093       0.84165799      -0.25650800      -0.41878200       0.28877500
H        1.61800454       0.08641091       0.40574999       1.68665100      -0.90298900       0.16046500
H       -0.78218151       1.11122693      -1.08730704       0.43552200       0.03953200      -0.33455600
9
Lattice="10.0 0.0 0.0 0.0 10.0 0.0 0.0 0.0 10.0" Properties=species:S:1:pos:R:3:forces:R:3 id=SCAN_13 energy=-53.5248315 stress="0.003917127436840452 0.0007595105210013559 0.0001705242708282565 0.0007595105210013559 -0.004105577321878245 0.0008536012710740463 0.0001705242708282565 0.0008536012710740463 -0.0016326477156394167" pbc="T T T"
C        0.33790838       0.88820835       0.59140985       1.94170900      -0.89868700       1.04316000
C       -0.01600763      -0.55221468       0.90940985       0.45050300       0.24692400      -2.64530400
C       -0.81370564      -1.10151668      -0.38252917       2.61480200       1.08919400       2.24971200
O       -1.05010765      -0.51074867      -1.38075419      -0.78810400       1.35699100      -1.88543600
O        1.51051440       1.24411836       0.34414184      -2.52156200      -0.17575900       0.21988900
H       -0.58180764       1.49474136       0.69078185       0.26472900       0.98964800      -0.47082600
H        0.88821039      -1.17756569       1.07931086      -0.49947500       0.08135600      -0.05562500
H       -0.79297164      -0.72307068       1.61964186      -0.51127900       0.19106700       1.37647800
H       -0.96458365      -2.11826270      -0.25323817      -0.95132300      -2.88073500       0.16795400
9
Lattice="10.0 0.0 0.0 0.0 10.0 0.0 0.0 0.0 10.0" Properties=species:S:1:pos:R:3:forces:R:3 id=SCAN_14 energy=-53.58165664 stress="0.0031227456043527863 0.0025352822824064015 0.0012082812686614883 0.0025352822824064015 0.0035333557652172678 -0.0008613781914448966 0.0012082812686614883 -0.0008613781914448966 0.0049654700341511815" pbc="T T T"
C        1.18146739       0.04147416       0.56841054      -0.23567100      -1.03921900       1.96994800
C        0.11744437      -0.51025685      -0.59627448       2.63572300      -0.00634300       1.48651400
C       -0.81435464       0.59983217      -0.83341049      -0.85637300       0.67366200      -0.16496200
O       -2.03566066       0.51576617      -0.74835148       0.61595300       0.28340400      -0.09481200
O        1.56410440      -0.65890685       1.52903356      -0.86001200       1.07301600      -2.40302400
H        1.46618040       1.15493018       0.63367354      -0.31672100      -0.91018600      -0.76682100
H        0.81707439      -0.54455685      -1.50056750      -0.77197000      -0.48316100       0.76212000
H       -0.29942463      -1.48505386      -0.18681047       0.41206200       0.98592300      -0.86622800
H       -0.26942863       1.58604319      -1.08123949      -0.62299300      -0.57709700       0.07726400
9
Lattice="10.0 0.0 0.0 0.0 10.0 0.0 0.0 0.0 10.0" Properties=species:S:1:pos:R:3:forces:R:3 id=SCAN_15 energy=-53.76774674 stress="0.0010218411495622292 0.0005510628407242329 -0.0001257414428500441 0.0005510628407242329 -0.0003955930899076068 0.0018700934473153935 -0.0001257414428500441 0.0018700934473153935 0.000714440583603353" pbc="T T T"
C       -0.17788742      -1.11198282       0.97497602      -0.10661000       1.41164700       0.37169800
C       -0.49067243      -0.61855981      -0.46695601       0.14921700      -2.47212800       0.96667000
C        0.29914358       0.60368121      -0.76504901      -1.42339500      -0.64941900      -0.41298100
O       -0.08668642       1.45012822      -1.52830803      -0.05674400       1.37465100      -0.71185800
O        0.42564559      -0.37549481       1.76934403      -0.61710900      -1.31958200      -0.71402200
H       -0.63649443      -2.09724084       1.29399202       0.38538700       0.32842400      -0.12970500
H       -0.00169042      -1.39714583      -1.14477502      -0.62959600       0.40197700       0.37912200
H       -1.60943145      -0.70951881      -0.60979201       0.97056200       0.55475800      -0.21790900
H        1.26666460       0.56603921      -0.30444100       1.32828700       0.36967200       0.46898500
9
Lattice="10.0 0.0 0.0 0.0 10.0 0.0 0.0 0.0 10.0" Properties=species:S:1:pos:R:3:forces:R:3 id=SCAN_16 energy=-53.22608917 stress="-0.00643659997663099 0.0020525826911379683 -0.0036206744778883746 0.0020525826911379683 -0.0021562104671550082 0.0008126694542265038 -0.0036206744778883746 0.0008126694542265038 -0.0032216235919250284" pbc="T T T"
C        0.19247791      -0.78455244       1.09276908       1.23020500       0.20457600      -1.47473000
C        0.66786092      -0.60029444      -0.34061094       1.19186900       0.86819200      -0.12797700
C        0.05912191       0.60381058      -1.07799196       5.43821900      -1.11098100       3.11220900
O       -0.95929811       0.61169958      -1.59246196      -6.45016000       0.45135200      -3.43598700
O        0.06185091       0.10165558       1.88891610      -0.56219600       1.33386600       1.08830400
H        0.17795591      -1.80891246       1.38169909      -0.47985500      -1.71291500       0.59704300
H        1.68679394      -0.05744543      -0.26434394      -0.50630900      -1.99196400       0.21662700
H        0.63221292      -1.57548645      -0.90300095       0.24756500       0.90411000       0.29634300
H        0.79831392       1.42004560      -1.03964896      -0.10933700       1.05376400      -0.27183300
9
Lattice="10.0 0.0 0.0 0.0 10.0 0.0 0.0 0.0 10.0" Properties=species:S:1:pos:R:3:forces:R:3 id=SCAN_17 energy=-53.45912119 stress="0.0057198313101236836 -0.0018415135770279741 -5.045011826451437e-05 -0.0018415135770279741 0.0031198308195909985 0.0017354703369792178 -5.045011826451437e-05 0.0017354703369792178 0.0033776113879991024" pbc="T T T"
C        0.56295182       0.68628857       1.05636466       0.15779100      -0.16995500      -1.02368000
C        0.41012782      -0.13164245      -0.23376637      -0.98819000      -2.89325800       0.17235100
C       -1.08949121      -0.33268745      -0.69943037      -0.83950300       0.09523500      -0.58193100
O       -1.51272521      -0.78503446      -1.77763939       1.29176200       0.67804400       1.73236100
O        1.61599984       0.61342857       1.65591567      -0.00620300       0.46980600       0.64451000
H       -0.31979619       1.33773558       1.40095666       0.64010000      -0.54024500      -0.23373000
H        1.15225983      -0.02832445      -1.05119338      -0.38654600       0.95618100       0.07326100
H        0.83015183      -1.23130547       0.03513264      -1.18819100       1.78840700      -0.06261900
H       -1.91556622       0.00258055       0.08040864       1.31898000      -0.38421500      -0.72052400
9
Lattice="10.0 0.0 0.0 0.0 10.0 0.0 0.0 0.0 10.0" Properties=species:S:1:pos:R:3:forces:R:3 id=SCAN_18 energy=-53.70803222 stress="0.0018967821403376704 0.00037559529466827686 0.000540308720500336 0.00037559529466827686 -0.0021596245726468663 -0.0004488081967148874 0.000540308720500336 -0.0004488081967148874 0.004633565303364088" pbc="T T T"
C        0.84138904      -0.14802013       1.23957775      -0.80289700       2.51248000      -1.96690500
C        0.36371303       0.67667289      -0.04473427       0.20183100       1.13059300       0.06609400
C       -0.81584499       0.06707988      -0.86674729       0.97372700      -0.02845700       1.44497400
O       -1.78066200       0.62812889      -1.34340130       0.37944500      -0.09707800       0.06320000
O        1.39150805      -1.18506914       1.04659275       0.86463600      -2.18031900       0.52761900
H        0.74781504       0.37449088       2.23737677      -0.17509900      -0.33428300      -0.28242600
H        0.16435703       1.73455891       0.27311473       0.06681200      -0.53155500      -0.46144200
H        1.21873605       0.65559989      -0.82991329      -0.89066700      -0.00116600       1.27097100
H       -0.58956998      -1.01889014      -0.87659629      -0.61778700      -0.47021500      -0.66208600
9
Lattice="10.0 0.0 0.0 0.0 10.0 0.0 0.0 0.0 10.0" Properties=species:S:1:pos:R:3:forces:R:3 id=SCAN_19 energy=-53.45832958 stress="0.0023936749233583626 0.00044918268726244044 0.0021310134948138173 0.00044918268726244044 -0.0005647754362737983 0.0008638560705678723 0.0021310134948138173 0.0008638560705678723 0.005671103848377913" pbc="T T T"
C        0.74139527      -0.17192511       1.22224602       0.22752200       1.18171500      -1.01470600
C       -0.46810676       0.19921590       0.31522801       0.94678800       0.40407000      -0.84216800
C       -0.26313675       0.91406591      -1.12515902      -3.21386300      -3.55907900      -0.98143400
O       -0.73919276       0.36538190      -2.17352804       2.04535000       1.88694000       3.01447900
O        0.76618427      -1.23725613       1.77631103      -0.22607800      -1.41869500       0.75959200
H        1.67192728       0.45203390       1.34061302      -0.58859800       0.48584100      -0.34462600
H       -1.03379177      -0.74312712       0.29334200      -0.03625200       0.11057700      -0.59007800
H       -1.12098777       0.94239591       0.79353001       0.11484700       0.21903900       0.40083000
H       -0.06639775       1.97740093      -1.03272702       0.73028400       0.68959300      -0.40189000
9
Lattice="10.0 0.0 0.0 0.0 10.0 0.0 0.0 0.0 10.0" Properties=species:S:1:pos:R:3:forces:R:3 id=SCAN_20 energy=-53.45702611 stress="0.004035510140431079 0.0007511344157544207 0.002775012406422452 0.0007511344157544207 0.0026233999082456217 0.0021608978405085466 0.002775012406422452 0.0021608978405085466 0.006307781469781886" pbc="T T T"
C        0.86177797       0.55269595       1.24673884      -1.29053700       0.85554000      -1.35679000
C       -0.04737705       0.82754096      -0.02491018       0.13192400      -0.97543700      -0.95003000
C       -0.83296506      -0.47393906      -0.71007319       0.44411000      -0.12714400       1.15905400
O       -1.62918608      -0.44233406      -1.64163521       1.19336700       0.30341700       1.40047100
O        1.61542598      -0.38812506       1.18877884       0.63443000      -0.76102900       0.51738900
H        0.88458497       1.29841997       2.11671686      -0.32521900      -0.51159600      -0.61617900
H       -0.74337806       1.71067797       0.02273082       0.81223300      -0.52723100      -0.26901200
H        0.76383697       0.83713096      -0.85535319      -1.07173300       0.77653500       0.94768600
H       -0.46562106      -1.45737308      -0.19032018      -0.52857500       0.96694500      -0.83259000
9
Lattice="10.0 0.0 0.0 0.0 10.0 0.0 0.0 0.0 10.0" Properties=species:S:1:pos:R:3:forces:R:3 id=SCAN_21 energy=-53.46696653 stress="-0.0050274357367529506 4.6823801462376204e-05 -0.003057234724567515 4.6823801462376204e-05 0.0017703790975202827 -0.002285478362661176 -0.003057234724567515 -0.002285478362661176 1.4211916279636178e-05" pbc="T T T"
C        0.66525654      -0.73395650       0.89687236      -5.22282200      -1.11917100      -1.33083600
C       -0.47212548       0.21732552       0.50218435      -1.45644000      -0.98097900       2.50667200
C       -1.07774149      -0.04228049      -0.82526567       1.86589700       4.01934700      -0.62753500
O       -0.89828348       0.87641353      -1.66037869      -0.89907100      -1.95924900       0.34574900
O        1.73833156      -0.35395449       1.10615136       5.05469000       1.03614300       1.12291400
H        0.24910554      -1.78819552       0.99136136       0.75073000       0.03583000       0.04220900
H       -1.24548049      -0.19864749       1.32881336       1.04773400       1.27618800      -1.35324600
H       -0.20132347       1.29619654       0.62157535      -0.19552700      -0.80090600      -0.01007000
H       -1.60156950      -0.94629450      -0.97779168      -0.94519200      -1.50720300      -0.69585700
9
Lattice="10.0 0.0 0.0 0.0 10.0 0.0 0.0 0.0 10.0" Properties=species:S:1:pos:R:3:forces:R:3 id=SCAN_22 energy=-53.72712078 stress="0.0005166097103493574 -0.001806767095724182 0.002177756156657557 -0.001806767095724182 0.001226469026254312 0.0007072378820720837 0.002177756156657557 0.0007072378820720837 -0.0006183962411742614" pbc="T T T"
C       -0.18270615       0.16705373       1.03269612       0.34578800       1.21958400       1.83445600
C       -0.72360716      -0.09732728      -0.30962390      -2.04114800       1.39179200      -1.68806200
C        0.17653385       0.00697772      -1.49100293       1.13277900       0.70827200       0.54470300
O        1.37383087       0.22672973      -1.32940092      -0.29262800      -0.22777400      -0.73648300
O       -0.66628316      -0.32172528       2.04076714      -0.36040200      -0.82724800       0.17543800
H        0.57435686       0.97204274       1.27266312       0.00440100      -0.30805800      -1.12576800
H       -1.22481817      -1.06636129      -0.38216591      -0.42358600      -0.15178000       0.30120700
H       -1.57462718       0.73918674      -0.53872491       1.41705600      -1.66620300       0.63041800
H       -0.31484815      -0.05052328      -2.49805094       0.21774000      -0.13858500       0.06409100
9