9
Lattice="10.0 0.0 0.0 0.0 10.0 0.0 0.0 0.0 10.0" Properties=species:S:1:pos:R:3:forces:R:3 id=SCAN_0 energy=-53.59972887 stress="-0.0009206413205951583 -3.35543530607484e-05 -0.0007382020088455907 -3.35543530607484e-05 -0.0032296376896426625 -0.0006265039615287838 -0.0007382020088455907 -0.0006265039615287838 -0.0011197704277473377" pbc="T T T"
C        0.42615005       0.74558462       0.57480545       2.74190100       1.93371800       0.37680000
C        0.64608606      -0.28676639      -0.41952457      -0.49456400      -0.87747000      -0.27930900
C       -0.57292697      -1.04638141      -0.78288758      -2.40574200      -0.80874000       0.22492300
O       -1.77255799      -0.71037340      -0.67375858       2.40085800      -0.41354900      -0.25026500
O        1.29424907       1.26038263       1.28115946       0.17044000      -0.87431400       0.16082500
H       -0.46904196       1.26131263       0.54016945      -2.92532700       0.77412700       0.00928000
H        0.95955506       0.05060361      -1.40529459       0.36893100       0.86651200      -0.38446500
H        1.41635707      -0.98557041      -0.15246457       0.72726200      -0.53628500       0.39273800
H       -0.26094896      -2.05937742      -1.14949758      -0.58376100      -0.06399900      -0.25052700
9
Lattice="10.0 0.0 0.0 0.0 10.0 0.0 0.0 0.0 10.0" Properties=species:S:1:pos:R:3:forces:R:3 id=SCAN_1 energy=-53.48377803 stress="-0.0021931289936346077 0.0009952772867224703 -0.002041635084131169 0.0009952772867224703 0.00044051947259571446 -0.0003561529937411505 -0.002041635084131169 -0.0003561529937411505 0.002171895379588353" pbc="T T T"
C        0.18745326       0.55185098       1.13142780       0.52939300      -0.35346300       0.12077900
C        0.15581226      -0.59671404       0.10155978       0.42757100       0.41714000       0.95222800
C       -0.75373075      -0.55006304      -1.02585224      -3.13921900      -1.38281300      -3.52100000
O       -0.67933075      -0.02325903      -2.15514926       0.89896400       0.17040300       2.02620700
O        1.06900028       0.60733598       1.95560481       0.91537100      -0.07693100       0.36910800
H       -0.61328475       1.26658100       1.26838580      -1.08752400       0.44521500      -0.63711300
H        1.15475128      -0.72626104      -0.35415623       0.09798300      -0.13632800       0.66662100
H       -0.18972274      -1.42191105       0.78129179       0.63327400       0.07202200      -0.63951200
H       -1.64874277      -1.30445105      -0.99493124       0.72418600       0.84475400       0.66268100
9
Lattice="10.0 0.0 0.0 0.0 10.0 0.0 0.0 0.0 10.0" Properties=species:S:1:pos:R:3:forces:R:3 id=SCAN_2 energy=-53.60943414 stress="0.0020258690320791883 0.000958608420607906 -0.004334877884144944 0.000958608420607906 -0.00024418656153193073 -0.0007624814793452764 -0.004334877884144944 -0.0007624814793452764 -0.0002694958810373873" pbc="T T T"
C        0.49021827       0.34996475       1.06792785       0.49673600       3.48018000       1.30707400
C        0.22398926      -0.80508727       0.24758984      -0.12110200      -3.16991000      -0.05082300
C       -0.49269975      -0.32091326      -0.96926518       1.58914900       1.29998500      -0.70885000
O       -1.64264377      -0.44576426      -1.24570319      -1.94435900      -0.45696400      -0.34347500
O        1.44478028       1.14289477       0.94023085      -1.17265000      -1.40664200       0.22435800
H       -0.40067275       0.64908576       1.76850287       1.07557900      -0.47442900      -0.58989900
H        1.18432128      -1.22396027      -0.26961217      -1.25252100       0.12945400       1.40878800
H       -0.50730975      -1.50845928       0.84516685       1.60343400       0.68532000      -1.16358900
H        0.22644326       0.25949175      -1.61875919      -0.27426600      -0.08699300      -0.08358400
9
Lattice="10.0 0.0 0.0 0.0 10.0 0.0 0.0 0.0 10.0" Properties=species:S:1:pos:R:3:forces:R:3 id=SCAN_3 energy=-53.67725682 stress="5.8882397093582655e-05 -0.0013821385053629665 -0.0015055768313455595 -0.0013821385053629665 0.00013510994804799488 -0.0004873557570763425 -0.0015055768313455595 -0.0004873557570763425 -0.0012524961193092453" pbc="T T T"
C        0.69157344       0.69098056       0.72771338       1.76605600       0.72718400      -0.72656000
C        0.93390145      -0.23623445      -0.42892464       1.15627500      -0.75234200       0.22903100
C       -0.25840857      -0.48119346      -1.28176666      -0.88393400      -1.87177600       0.89016000
O       -1.40075959      -0.38093746      -0.84384965       0.48268300       0.43874000      -1.07661400
O        0.10663343       0.45067056       1.74548840      -0.95503200      -0.56188300       0.99742900
H        1.23899745       1.65675058       0.61001438      -0.19881400       0.37548900      -0.07003700
H        1.84835446      -0.00151145      -1.03499965      -0.56863500       0.21426200       0.37567400
H        1.14049045      -1.28925547      -0.04490563      -0.23625200       0.78204300      -0.15222000
H        0.03345443      -1.15779447      -2.13562067      -0.56234800       0.64828300      -0.46686200
9
Lattice="10.0 0.0 0.0 0.0 10.0 0.0 0.0 0.0 10.0" Properties=species:S:1:pos:R:3:forces:R:3 id=SCAN_4 energy=-53.26721555 stress="-0.0025605229453114736 0.0021172572087003708 -0.0036321026810978672 0.0021172572087003708 -0.0003252325575315248 0.00109975390798063 -0.0036321026810978672 0.00109975390798063 -0.005135651021977514" pbc="T T T"
C       -0.13095350       0.31767473       1.26429429       1.30603300      -0.92076500      -0.96641800
C       -0.03594850      -0.63114729       0.02835327       1.43536000       1.06155700       2.90000000
C        0.12180650      -0.02488528      -1.27065475       1.66651300       2.39492500       0.45620100
O       -0.70992451      -0.26309828      -2.07907277      -1.39313400       0.11520100      -3.25512700
O        0.74753851       0.58533873       2.05311531       0.08704700       0.14824100       0.07314600
H       -1.14474352       0.67822474       1.34214429      -1.06765800       0.65349000       0.38634400
H        0.83009051      -1.24347930       0.02093827       1.50623600      -0.86499400       0.94337300
H       -0.85720752      -1.26265530       0.21312427      -1.60782600      -0.92673400      -0.72619100
H        1.11184352       0.74248874      -1.42610775      -1.93257200      -1.66091900       0.18867100
9
Lattice="10.0 0.0 0.0 0.0 10.0 0.0 0.0 0.0 10.0" Properties=species:S:1:pos:R:3:forces:R:3 id=SCAN_5 energy=-53.48890608 stress="0.0005693067718991896 -0.0027452591324193666 0.0011036049191113 -0.0027452591324193666 -0.0013543887557892894 -0.0007062829311758236 0.0011036049191113 -0.0007062829311758236 -0.0032526314092624167" pbc="T T T"
C       -0.12850569      -0.75815306       0.76887050       0.07419100       0.40903400      -1.54472400
C       -0.50232370       0.58359396       0.19293249      -2.07888900       2.94879300      -0.36582500
C        0.42926932       1.00052997      -0.91366753      -1.62079500      -2.91155300      -0.77462500
O        0.48008932       0.31927695      -1.92892355       0.20172600      -0.00941000      -0.31992000
O       -0.28583670      -1.10701607       1.90016452      -0.43322800      -0.38348800       1.73317800
H        0.41743832      -1.38434007       0.03842249       0.04532800      -0.29768700      -0.27081400
H       -1.57108772       0.82948596      -0.25747252       1.47692100      -1.59727900       0.38079400
H       -0.61013470       1.42787897       0.91019950       0.70811000      -0.61944200       0.62160400
H        1.08079533       1.79427298      -0.80786353       1.62663500       2.46103300       0.54033100
9
Lattice="10.0 0.0 0.0 0.0 10.0 0.0 0.0 0.0 10.0" Properties=species:S:1:pos:R:3:forces:R:3 id=SCAN_6 energy=-53.74208144 stress="0.003553915296277927 0.00024748207835039707 0.0010965332892716743 0.00024748207835039707 0.00045224726824324914 0.0006621492201467032 0.0010965332892716743 0.0006621492201467032 0.0034332918909111077" pbc="T T T"
C        0.40907642      -0.78988690       0.82097842       1.83898200       0.56212300      -1.51789600
C        0.28709442      -0.59264690      -0.77389161       1.30821800       1.51811100       0.85374300
C       -0.40529259       0.78523913      -0.80609061       0.24735900       0.38725400       1.34707200
O       -1.62969462       0.91434713      -0.80566361       1.34008600       0.20352400      -0.39661200
O        1.35094044      -0.37516089       1.48726343      -0.77050700      -0.23702100      -0.71095500
H       -0.41322759      -1.30360291       1.26507742      -1.23902900      -0.62901300       0.60913500
H        1.32862144      -0.48999289      -1.21661862      -0.98341500      -0.22005800       0.52099500
H       -0.32790559      -1.29560591      -1.30733562      -0.35645700      -0.73675600       0.03801100
H        0.37310542       1.64381014      -0.52127861      -1.38523600      -0.84816300      -0.74349300
9
Lattice="10.0 0.0 0.0 0.0 10.0 0.0 0.0 0.0 10.0" Properties=species:S:1:pos:R:3:forces:R:3 id=SCAN_7 energy=-53.50398322 stress="0.001855943946127016 0.0013741119246270803 -0.0030243544544923625 0.0013741119246270803 0.003091357054958719 -0.002459628950291571 -0.0030243544544923625 -0.002459628950291571 0.0026896472861077463" pbc="T T T"
C       -0.30474997      -0.72109292       1.17109855      -2.09144300       1.35293500      -1.32365600
C       -0.15618197       0.67745411       0.22905654       2.10131800      -3.21786900       0.36743600
C        0.93036505       0.45124710      -0.89353348       0.69035400      -1.68761600       1.97533100
O        0.91872705       0.83976111      -2.03464450      -0.34053300       0.36501100      -0.18732800
O       -1.37603699      -1.19975092       1.55977556       1.95404900       1.02003400      -0.64716100
H        0.66549704      -1.18909592       1.32245755       0.60109200      -0.46189100       0.42923700
H       -1.06890799       0.91262111      -0.21033747      -1.88052600       0.77279300      -0.58677700
H        0.25030304       1.40726012       0.90973755       0.09255700       0.68962100       0.46855000
H        1.82148906      -0.27080791      -0.51759948      -1.12686700       1.16698200      -0.49563300
9
Lattice="10.0 0.0 0.0 0.0 10.0 0.0 0.0 0.0 10.0" Properties=species:S:1:pos:R:3:forces:R:3 id=SCAN_8 energy=-53.6642285 stress="0.0035274762636206864 -0.0007805631312829603 -0.00030884859607608126 -0.0007805631312829603 0.003910130705110337 -0.003117452804614037 -0.00030884859607608126 -0.003117452804614037 0.004582453585132229" pbc="T T T"
C       -0.46896616      -0.55225198       1.36689520      -0.52262700      -0.58518300      -0.63591300
C        0.72348386      -0.23386498       0.42708219      -0.09878400      -1.24520900      -0.03390500
C        0.31760185       0.03688103      -1.05145984      -1.52490900       1.06217000      -0.82132500
O        1.00370386       0.62798604      -1.88702085      -0.32166300      -1.03982900       1.23730700
O       -1.52633118       0.06461303       1.20244320       1.07691400      -0.90263800       0.78322100
H       -0.34792016      -1.50999000       2.12037222      -0.26753400       1.91923100      -1.19149000
H        1.19153187       0.69744904       0.74898919       0.36300200       0.10848500       0.25317100
H        1.45612087      -1.09126399       0.47232119      -0.23788600       0.80768500      -0.05838900
H       -0.81738717      -0.16722098      -1.31796784       1.53348600      -0.12471100       0.46732500
9
Lattice="10.0 0.0 0.0 0.0 10.0 0.0 0.0 0.0 10.0" Properties=species:S:1:pos:R:3:forces:R:3 id=SCAN_9 energy=-53.52065837 stress="0.003693643961079075 0.001126486291566788 -0.00029777615888676434 0.001126486291566788 0.008980820100105659 0.0013202289763433303 -0.00029777615888676434 0.0013202289763433303 0.004419968378058111" pbc="T T T"
C       -0.03893349      -0.66695460       1.03677766      -1.26609000       2.22926200      -0.37004700
C        0.60594652       0.70459242       0.46590465      -0.77408000       0.54050200       0.15023700
C        0.60147052       0.74785742      -1.08213537      -0.66389700      -2.19664700      -1.30507800
O        0.13470251      -0.20573159      -1.78763239       1.35706100       2.92055000       1.96445200
O       -1.21421851      -0.54915960       1.40106367       1.54890000      -0.94397000      -0.16427600
H        0.51520452      -1.65375862       1.02318266      -0.15731500       0.65880700       0.01047500
H       -0.02831649       1.61529044       0.87512866       0.71310200      -1.68297200      -0.76459600
H        1.62334453       0.99720143       0.81168566      -0.07450300      -0.55982500      -0.08730100
H        1.10953653       1.66918044      -1.58225138      -0.68317700      -0.96570800       0.56613500
9
Lattice="10.0 0.0 0.0 0.0 10.0 0.0 0.0 0.0 10.0" Properties=species:S:1:pos:R:3:forces:R:3 id=SCAN_10 energy=-53.61118608 stress="-0.0007564459400205473 0.0009244673656893246 0.0023522562687990013 0.0009244673656893246 0.0031115982690539585 0.0029008786794550135 0.0023522562687990013 0.0029008786794550135 -0.0008124759674436014" pbc="T T T"
C       -0.10354773       0.32758483       1.11812357       0.24195600       0.96410800      -2.04914700
C       -0.50958574      -0.58723018      -0.17016845       0.71110500      -0.23398500       2.63757700
C        0.14495627      -0.41571218      -1.44569147       1.97572800       3.48284500      -1.15301700
O        0.61894028       0.70230084      -1.79242848      -0.83820300      -2.38571000       0.13660200
O       -0.19006974      -0.06064617       2.24557859      -0.47026600      -1.20555300       1.13313800
H        0.33328627       1.36628285       1.00852157      -0.29646400      -0.47347700      -0.85476400
H       -0.23995474      -1.59967920       0.16878556      -0.45441300      -0.24016200       0.17397100
H       -1.56843776      -0.57690918      -0.37981645      -0.91073100       0.06937300       0.32297400
H        0.24312527      -1.33185320      -2.06285048       0.04128900       0.02256000      -0.34733300
9
Lattice="10.0 0.0 0.0 0.0 10.0 0.0 0.0 0.0 10.0" Properties=species:S:1:pos:R:3:forces:R:3 id=SCAN_11 energy=-53.70003598 stress="-0.0002525813913062437 -0.00244665285281886 -0.0014380998761856355 -0.00244665285281886 -0.0004693677277755469 0.0005967069969618172 -0.0014380998761856355 0.0005967069969618172 -0.000898471480180021" pbc="T T T"
C        0.35351426       0.50764899       1.23838755      -2.35135700      -2.20366400      -0.91175200
C        0.12327626      -0.69426203       0.18793253       3.02871000       0.28153100       2.41216100
C       -0.39953875      -0.26469202      -1.10814649       0.94509800      -0.31105400      -0.38261200
O       -1.39554577      -0.76313503      -1.56007650      -1.90770100      -0.46541700      -0.81998000
O        1.31823628       1.19864700       1.25814855       1.33001100       1.20737200       0.23922900
H       -0.54847275       0.56553199       1.93271756       0.62547300       0.37926500      -0.05639400
H        1.24218328      -1.12777604       0.13182953      -2.26920400       0.63517400      -0.24062700
H       -0.57268975      -1.38868904       0.67589954       0.12235300      -0.20798100      -0.21416900
H        0.18611326       0.41265399      -1.73706950       0.47661600       0.68477400      -0.02585600
9
Lattice="10.0 0.0 0.0 0.0 10.0 0.0 0.0 0.0 10.0" Properties=species:S:1:pos:R:3:forces:R:3 id=SCAN_12 energy=-53.59226699 stress="0.00022087452494675672 0.0006419204890697154 -0.0010694638641927188 0.0006419204890697154 0.0037444373623455136 -0.0025973416076450592 -0.0010694638641927188 -0.0025973416076450592 0.0028116937555552677" pbc="T T T"
C        0.46418704      -0.48047185       1.33189736       0.49305600       0.25821800      -0.15541900
C        0.80478105      -0.36648285      -0.16240867       2.02922800       2.76258300       0.50340300
C       -0.36709397       0.00413116      -1.03432869       1.38774400       0.67429700      -1.73611100
O       -0.24795397       0.89987418      -1.89406570      -0.71348300      -1.37504800       1.38895600
O       -0.62085097      -0.14522684       1.77344536      -0.18860700      -0.08149500      -0.03220300
H        1.27322306      -0.81636985       2.06058337      -0.23901300       0.02729700      -0.64337500
H        1.47400406       0.64789117      -0.36251067      -1.05440300      -2.08884700       0.98460400
H        1.53880606      -1.13908486      -0.48002768      -0.69917900      -0.10646300      -0.21012600
H       -1.23592898      -0.63388185      -0.91303968      -1.01534300      -0.07054200      -0.09972700
9
Lattice="10.0 0.0 0.0 0.0 10.0 0.0 0.0 0.0 10.0" Properties=species:S:1:pos:R:3:forces:R:3 id=SCAN_13 energy=-53.46876584 stress="0.0022389541536368424 0.0006063750945978104 -7.110327196206207e-05 0.0006063750945978104 -0.0037720685232457986 -0.0024610644973905244 -7.110327196206207e-05 -0.0024610644973905244 0.00418903254040043" pbc="T T T"
C        0.35977799       0.20441669       1.46057460       0.32271100      -7.95860600      -1.74198700
C        0.58843599      -0.46167132       0.00980158       1.02690000      -0.52351000       0.39194900
C       -0.40300102      -0.12844732      -1.10049744      -1.70670200       0.36374400      -0.00340200
O       -0.77020703      -0.95151133      -1.92996946       0.57119600      -0.03965800       0.17973200
O        0.26776899       1.33545271       1.59484760      -0.52653200       6.38336000       1.35089300
H        0.24905699      -0.64967633       2.31518862       0.21265600       1.47245900      -1.06446000
H        1.61983601      -0.11982732      -0.38572243      -1.15546400      -0.35993800       0.67054000
H        0.60750799      -1.59698234       0.11753058       0.10434000       1.14927900      -0.22837800
H       -0.99410203       0.86554470      -1.13245244       1.15089500      -0.48712900       0.44511300
9
Lattice="10.0 0.0 0.0 0.0 10.0 0.0 0.0 0.0 10.0" Properties=species:S:1:pos:R:3:forces:R:3 id=SCAN_14 energy=-53.86922338 stress="0.0013830435241862194 -0.0014594583204144082 -0.00023972388250692415 -0.0014594583204144082 0.001311646901295241 -0.0011787651720051862 -0.00023972388250692415 -0.0011787651720051862 -0.00045742772081773227" pbc="T T T"
C        0.19499786       0.64544287       0.94507796      -0.31929900       0.30637700      -0.67287500
C        0.06327886      -0.75514116       0.32157295      -1.66403400       0.97141400      -0.76124900
C       -0.16204815      -0.45629415      -1.16825007      -1.40431900      -0.72031500       0.38849500
O       -1.29416717      -0.36911615      -1.65061808       1.17533600       0.11950400       0.22516800
O        1.20137888       0.87569687       1.56756997       0.64813900       0.79526400       0.84938800
H       -0.55425615       1.50720488       0.68912296       0.47427000      -1.29474400       0.33773600
H        1.00108287      -1.26340817       0.51576996       0.11959000      -0.36785100       0.17401900
H       -0.87665316      -1.23710517       0.69324696       0.68248200       0.04238800      -0.10466100
H        0.75666687      -0.30732015      -1.75174808       0.28783600       0.14796400      -0.43602100
9
Lattice="10.0 0.0 0.0 0.0 10.0 0.0 0.0 0.0 10.0" Properties=species:S:1:pos:R:3:forces:R:3 id=SCAN_15 energy=-53.66560812 stress="-0.0034593813990572994 -0.001585062450063683 -0.0018363206414352391 -0.001585062450063683 0.0011352993024525354 -0.0003283158630397112 -0.0018363206414352391 -0.0003283158630397112 -0.0027917583754071963" pbc="T T T"
C        0.74904389       0.46713502       0.47611049      -1.50323700       1.09278800       1.14634800
C       -0.75296714       0.53745202       0.24088348       0.96279100      -0.54870300       2.57687500
C       -1.01953214      -0.29271500      -0.91400954      -0.47468800      -1.77780500      -1.81178900
O       -0.31507213      -1.20807101      -1.38250955      -0.43549900       1.25680900       1.07388800
O        1.27205090       0.54345702       1.55942551       0.62637000      -0.17218600       0.79247300
H        1.24606290       0.44997902      -0.44203753       1.81347000      -0.24306600      -1.86857400
H       -1.17892014       0.11203401       1.21110050      -0.07150800       0.29522900      -1.06620300
H       -1.11154014       1.57491103       0.17965248      -0.05795600       0.00288300      -0.21684400
H       -1.95744216      -0.06515599      -1.41066955      -0.85974500       0.09405100      -0.62617500
9
Lattice="10.0 0.0 0.0 0.0 10.0 0.0 0.0 0.0 10.0" Properties=species:S:1:pos:R:3:forces:R:3 id=SCAN_16 energy=-53.67025893 stress="-0.00028058080124495596 0.0004358633067878056 -0.00288481303496499 0.0004358633067878056 0.0009757725707040852 0.0006141020828956538 -0.00288481303496499 0.0006141020828956538 0.001493586892314738" pbc="T T T"
C        0.64761358      -0.23925914       0.84556010      -1.20245100       1.03722400       0.15625600
C       -0.82807645      -0.13731014       0.45817610       0.08039100      -2.84181300      -2.16991600
C       -0.84493945       0.14595887      -1.08223793       1.67942700      -1.25280200       0.32821500
O       -0.03693843      -0.31247614      -1.89595394      -0.38046000       0.09725500       1.02987400
O        0.99325359       0.53681088       1.71116912       1.15429000       0.02048600       0.69829900
H        1.35738659      -0.85595715       0.24454109      -0.26229600      -0.10706900       0.15100100
H       -1.29160845      -1.22106815       0.42242110       0.55470800       1.57993400       0.38101900
H       -1.42206846       0.51838288       1.10451311       0.16830000       0.05438800      -0.16345100
H       -1.61183546       0.74412588      -1.47614794      -1.79191000       1.41239900      -0.41129600
9
Lattice="10.0 0.0 0.0 0.0 10.0 0.0 0.0 0.0 10.0" Properties=species:S:1:pos:R:3:forces:R:3 id=SCAN_17 energy=-53.50063217 stress="-0.0007380459711174435 -0.00011343318685380235 -0.001327781202385649 -0.00011343318685380235 -0.002960859582154752 -0.0004965619830370202 -0.001327781202385649 -0.0004965619830370202 0.001267575605357379" pbc="T T T"
C        0.61084914       0.70016709       0.80576504      -2.97406500       2.91527900      -2.81646100
C        0.29303314      -0.50876593       0.04165003      -0.28979300      -0.42459700      -1.84394200
C       -1.10730889      -0.57441294      -0.57397498       1.57061900       1.19758500      -4.10053400
O       -1.27400189      -0.56541794      -1.83281900       0.09531600      -0.35017100       3.31804800
O        1.45506016       0.89770409       1.60096606       2.39017700      -0.17471000       2.50264000
H        0.01180013       1.62625810       0.37314004       0.43196900      -0.78873500       0.64944400
H        1.11376915      -0.56100994      -0.73298798      -0.78685000      -0.18102800       0.31513700
H        0.35271614      -1.33421395       0.67419404       0.54244600      -1.94314600       1.34677800
H       -1.92964590      -0.44420093       0.10952403      -0.97981900      -0.25047800       0.62889100
9
Lattice="10.0 0.0 0.0 0.0 10.0 0.0 0.0 0.0 10.0" Properties=species:S:1:pos:R:3:forces:R:3 id=SCAN_18 energy=-53.36277518 stress="0.00011199763975484917 4.2142669617963757e-05 -0.0002558519420882065 4.2142669617963757e-05 -0.000591632650042474 -0.0009671280805647368 -0.0002558519420882065 -0.0009671280805647368 -0.006233969382859192" pbc="T T T"
C        0.10720420       0.32177292       1.29566072      -5.00911800      -2.29021500      -2.43164200
C        0.33650521      -0.32538809      -0.06689430       1.73585400       2.15078500       0.11597300
C       -0.78732881      -0.21192809      -1.12819332       0.08018200      -0.84800900       6.16179000
O       -0.57036381      -0.31446809      -2.26507134       0.13599100      -0.00177300      -4.67052600
O        0.88334122       0.54355093       2.14455773       2.58192400       1.13293100       2.25246200
H       -1.07251982       0.29681292       1.48132272       1.16462800       0.68267600       0.24346000
H        1.29988922       0.13681192      -0.39284031      -0.37006100      -0.17822600      -0.53573500
H        0.68829421      -1.31533111       0.19547770      -0.38469400      -0.96408400      -0.16496800
H       -1.79142483      -0.18756809      -0.56882831       0.06529300       0.31591600      -0.97081400
9
Lattice="10.0 0.0 0.0 0.0 10.0 0.0 0.0 0.0 10.0" Properties=species:S:1:pos:R:3:forces:R:3 id=SCAN_19 energy=-53.57798612 stress="0.003845780746022481 -0.0007386014654296472 0.0013827376902390512 -0.0007386014654296472 0.0039771520301040714 -0.0005474677314677242 0.0013827376902390512 -0.0005474677314677242 0.0012504364212977037" pbc="T T T"
C        1.10837156       0.00435308       0.99724816       0.44518500      -1.17177800       1.87428200
C        0.27343455       0.81601110       0.08611615       0.53909100       0.04864100      -1.64713800
C       -0.64218147      -0.08256492      -0.74828187      -2.69864200       3.35712700      -2.20470000
O       -1.64279949       0.52407609      -1.29648888       2.84443900      -2.66242500       1.65454300
O        0.95457556      -1.22530394       1.00496516       0.58939900       0.92806700       0.20067000
H        1.84083658       0.46688409       1.79223618      -0.83715600      -0.22004700      -1.23983500
H       -0.33775846       1.62678811       0.48610715       0.00587100       0.10416600       0.56447700
H        0.94434456       1.37617611      -0.66117187      -0.52303400      -0.60455000       0.65722300
H       -0.33139346      -1.12570294      -0.98024787      -0.36515300       0.22079900       0.14047900
9
Lattice="10.0 0.0 0.0 0.0 10.0 0.0 0.0 0.0 10.0" Properties=species:S:1:pos:R:3:forces:R:3 id=SCAN_20 energy=-53.84037988 stress="-0.0008286165100431356 -0.0017930919492293719 0.0006860729246262136 -0.0017930919492293719 -0.0003645353404972117 0.0005719656547868159 0.0006860729246262136 0.0005719656547868159 0.0002460153237058145" pbc="T T T"
C        0.74146073      -0.84183349       0.60782194       0.05104100       0.27966800       0.37331700
C       -0.40181829       0.22392053       0.45694094       1.01178200      -0.91687300      -0.60174200
C       -0.48247529       0.79676654      -0.91155208       2.44153600       0.55508000      -0.21044300
O       -1.32730531       0.68317254      -1.75973310      -1.28228600      -0.30719400      -0.38988600
O        1.44111374      -0.84693349       1.61720996      -0.52115900      -0.29992100      -1.16143500
H        0.87399873      -1.58640450      -0.25674307      -0.07366700       0.49207300       0.76054700
H       -1.32693431      -0.22452348       0.69387395      -1.40920200      -0.84532200       0.54733900
H       -0.14940129       0.96895354       1.17804195       0.14112900       0.87440000       0.68286100
H        0.49680073       1.31140055      -1.17748209      -0.35917400       0.16808900      -0.00055700
9
Lattice="10.0 0.0 0.0 0.0 10.0 0.0 0.0 0.0 10.0" Properties=species:S:1:pos:R:3:forces:R:3 id=SCAN_21 energy=-53.54870834 stress="0.00446953220202675 3.5152179396974514e-05 0.000714228372293073 3.5152179396974514e-05 0.00132891715704656 -0.0004033512857510797 0.000714228372293073 -0.0004033512857510797 0.0006859793019893253" pbc="T T T"
C       -0.47051237      -0.55847041       1.05777240       1.70728200       3.16459800      -1.09980100
C        0.51620664       0.43618761       0.26701938       2.35283500      -0.47737400       1.40809200
C        0.98787765      -0.00414840      -1.12954564      -0.22932000       0.34664200       0.26617600
O        0.20744964       0.13528360      -2.06161066       0.67779300      -0.37133500      -0.16782200
O       -1.19154739      -0.03814940       1.86443141      -1.01976000      -0.44337500       0.84087300
H       -0.37363437      -1.59794543       0.83753639      -0.12102300      -1.50998400      -0.13187000
H        0.09449164       1.47416863       0.28520538      -0.02598200      -0.82603300      -0.25101500
H        1.51133366       0.51938561       0.94454339      -1.92689600      -0.32228600      -1.03384100
H        2.07959067      -0.43180441      -1.26266965      -1.41492900       0.43914700       0.16920900
9
Lattice="10.0 0.0 0.0 0.0 10.0 0.0 0.0 0.0 10.0" Properties=species:S:1:pos:R:3:forces:R:3 id=SCAN_22 energy=-53.23122368 stress="-0.002433183676125204 -0.0024758568740188675 -0.0002067187822492535 -0.0024758568740188675 -0.00303334846914276 -0.002843750146425804 -0.0002067187822492535 -0.002843750146425804 0.0018513189878647369" pbc="T T T"
C        0.52704746      -0.08386186       1.34722884       1.88439400       2.97218800      -1.25368700
C        0.62923446       0.80600615      -0.05833218       3.87547200      -1.32538000       1.29205700
C        0.17483945       0.16040714      -1.32946520       1.26538100       0.45345300       2.96202900
O       -1.00186557       0.09628314      -1.50743021      -2.11365100      -0.68529600      -1.85572300
O       -0.27048356      -0.92218888       1.52812985      -2.27982300      -2.36647200       0.32371800
H        1.29795447       0.12654814       2.17297786      -0.24322300       0.32755300      -0.92270100
H        0.17996645       1.77015417      -0.03102318      -0.52338300       1.07342800       0.71814600
H        1.80319348       0.91987816      -0.14731418      -1.79886500       0.26162300       0.24185400
H        1.06255547      -0.21724586      -1.84011621      -0.06630100      -0.71109800      -1.50569300
9