15
Lattice="10.0 0.0 0.0 0.0 10.0 0.0 0.0 0.0 10.0" Properties=species:S:1:pos:R:3:forces:R:3 id=SCAN_0 energy=-91.69181566 stress="0.006433666467341825 0.0008866375788773462 0.0007318294280280639 0.0008866375788773462 0.00674461845199333 0.0029841591357216745 0.0007318294280280639 0.0029841591357216745 0.0017255213714325597" pbc="T T T"
C        2.48197194      -0.23559031       0.20744594       0.24544400      -0.23805400      -0.26264800
C        0.99705892      -0.06070430      -0.02878106      -1.78091300      -2.24541400       0.42808300
C        0.34446991       0.99133671       0.65550895      -2.41312500      -0.09305300      -1.14409800
C       -1.10561512       1.18239172       0.54290895       1.61371600      -0.13953000       0.13577100
C       -1.86329413       0.24272170      -0.11468906      -0.20635800      -0.64444200       0.10144800
C       -1.24211312      -0.89621732      -0.69238107      -2.09548400      -1.60235400      -0.14296000
C        0.10717690      -1.18622232      -0.66127907       1.20566400       4.50381500       1.57907000
H        2.70462295      -0.09497131       1.27247996      -0.06692900      -0.15571900       0.19918900
H        2.90989195      -1.23374533      -0.08820106      -0.41085100       0.83043100      -0.02173400
H        3.03604595       0.59697771      -0.26574306       0.06161200      -0.36150800      -0.26579700
H        0.77165791       1.74723373       1.31452796       0.87578100      -0.19416700      -0.23993400
H       -1.59883213       2.05142773       1.00652696       0.32004800      -0.27458000       0.05269900
H       -2.96986915       0.24208870      -0.03491306       0.56306800       0.25109000      -0.35487800
H       -2.02745513      -1.67809733      -1.04313008       1.54550300       0.97573600       0.21842500
H        0.51195391      -2.07999034      -1.07485408       0.54282500      -0.61225100      -0.28263700
15
Lattice="10.0 0.0 0.0 0.0 10.0 0.0 0.0 0.0 10.0" Properties=species:S:1:pos:R:3:forces:R:3 id=SCAN_1 energy=-91.37432161 stress="0.004533601293203941 0.001348097314590399 0.0028449672407053514 0.001348097314590399 0.001370435675751935 0.0013899403917703203 0.0028449672407053514 0.0013899403917703203 0.004389384983341282" pbc="T T T"
C        2.48209879      -0.19705956       0.25742696      -1.72400900      -2.67678700       0.85144500
C        0.93226277      -0.00368855       0.04129896       1.64024400      -2.05351400      -2.64642100
C        0.18884075       0.52668145       1.04564398       3.55379700       1.66938100       2.43722700
C       -1.13618627       0.71832246       0.93857597      -1.78999500      -0.01786400       1.46241500
C       -1.85795528       0.07439645      -0.07326104       0.06937100       1.39366200       0.62432200
C       -1.21401127      -0.50746456      -1.15182406       1.68133600      -1.32799800      -1.18328100
C        0.26430875      -0.56622756      -1.11974506      -0.42525600       1.23776600      -0.18800700
H        2.65758180      -1.28719658      -0.00561604       0.00531400       0.80229300       0.02247800
H        3.18393080       0.33376245      -0.35014705       0.33875400       0.95427100      -0.34795600
H        2.72683980      -0.22187956       1.36399298      -0.14335700       0.66741500      -1.01840200
H        0.91962877       0.90967546       1.88822799      -2.02187300      -0.37021200      -1.00145900
H       -1.66038228       1.25018447       1.76951599       0.12966600      -0.37672900      -0.69956700
H       -2.89574330       0.30174045       0.10377196      -0.86790000      -0.66710900      -0.92746500
H       -1.81243628      -1.01872157      -1.99279108       0.99542500       0.87046900       1.11949100
H        0.93654377      -0.80289757      -2.04010908      -1.44151600      -0.10504300       1.49517900
15
Lattice="10.0 0.0 0.0 0.0 10.0 0.0 0.0 0.0 10.0" Properties=species:S:1:pos:R:3:forces:R:3 id=SCAN_2 energy=-91.68386421 stress="0.0036277523492371263 -0.002273638219849376 0.0010140267801366234 -0.002273638219849376 0.00356789003521078 -0.001654499239089134 0.0010140267801366234 -0.001654499239089134 0.0035924191660755013" pbc="T T T"
C        2.50757988      -0.36311900       0.11655964      -1.70713900       0.66676500       0.30079100
C        0.92351386       0.02019401       0.14534764       0.98700700      -3.19357200       0.44263900
C        0.06280484      -0.90093001       0.90350366       0.57190700       3.25248900       0.36328700
C       -1.32690218      -0.66331500       0.84586466       1.87018800       0.79592500      -1.67587700
C       -1.84953819       0.17552001      -0.17759736       1.03950000      -0.37778100      -0.51445300
C       -1.02481418       0.90601002      -1.05077338       0.90797800      -0.38094000       1.22906100
C        0.36638585       0.90431902      -0.76984237       0.49208600      -0.30790100      -1.06199200
H        2.90668189       0.05734301      -0.83544837       0.21517100      -0.13165900       0.72556500
H        2.99262089       0.02317801       1.04377666       0.03139100       0.20118700      -0.66344900
H        2.70418189      -1.46757902       0.15286564      -0.55277700       0.66237100      -0.24898900
H        0.55195885      -1.34214102       1.79636567      -0.45094600      -0.52209100      -0.67310900
H       -1.92763719      -1.15365001       1.54166467      -1.39650400      -0.89902600       0.99017000
H       -2.86427121       0.12493501      -0.47821837      -1.34507400       0.01493600       0.26911300
H       -1.40241418       1.41554103      -1.94129439      -0.11567200       0.09266700       0.27840300
H        1.09875186       1.40555503      -1.43524438      -0.54711700       0.12663200       0.23884000
15
Lattice="10.0 0.0 0.0 0.0 10.0 0.0 0.0 0.0 10.0" Properties=species:S:1:pos:R:3:forces:R:3 id=SCAN_3 energy=-91.67001184 stress="0.01148797814239083 -0.0018421377279405626 0.002934227062714608 -0.0018421377279405626 0.0005584652705475304 -0.0023102883614365623 0.002934227062714608 -0.0023102883614365623 0.004271514083498977" pbc="T T T"
C        2.50916846      -0.30641086       0.22220641       0.67422300       2.09129100      -1.02804700
C        1.02779744       0.03262015       0.03815040      -2.31336600      -1.34101200       1.88892300
C        0.30282142       0.86681116      -0.85908461       0.41409100       0.70977900      -1.50685900
C       -1.12353260       0.88358716      -1.01500061       0.99237900      -0.99910300       1.49311400
C       -1.90584962       0.04373615      -0.14573360      -0.85836100       1.37701600      -0.92145200
C       -1.31384961      -0.72824286       0.84093842       4.89309900       1.61782300      -1.87537400
C        0.16843142      -0.73226786       0.91869642      -0.99091400       0.34693900      -0.53256300
H        3.00161347      -0.24968986       1.25523843      -1.02537200       0.09271100      -1.15411800
H        2.74440347      -1.25088887      -0.23025360      -0.18162600      -1.19149300       0.07625900
H        3.07706347       0.33388715      -0.50078761       0.03094800       0.18206300       0.73356900
H        0.83553843       1.54051118      -1.60116462      -0.20967900      -0.73825600       0.86530500
H       -1.55104961       1.55177618      -1.78394763       0.01697800      -0.39285900       0.44718500
H       -3.03296364       0.09370315      -0.20420760       1.08449200      -0.18075200      -0.09661000
H       -1.83518861      -1.38525987       1.41597043      -1.62582300      -1.70271000       1.86482000
H        0.74952643      -1.34646087       1.64709443      -0.90106800       0.12856100      -0.25415300
15
Lattice="10.0 0.0 0.0 0.0 10.0 0.0 0.0 0.0 10.0" Properties=species:S:1:pos:R:3:forces:R:3 id=SCAN_4 energy=-91.41873629 stress="0.007311628348534195 -0.0010685151548055845 0.0011374651061192168 -0.0010685151548055845 0.0026320131908393403 -0.0003674376422407474 0.0011374651061192168 -0.0003674376422407474 0.003057453177386921" pbc="T T T"
C        2.49287881      -0.13282072       0.32258357      -1.11667700      -0.44389700      -2.12041000
C        0.99154779      -0.09154872      -0.00476443      -1.54734700      -0.29447100       1.61994200
C        0.24196277       0.43371129       1.06581459      -0.32496700       0.21218800       2.03066500
C       -1.14729625       0.47863629       1.04264159      -1.84061400       0.15619800      -0.79151200
C       -1.88295726       0.13031629      -0.13712943      -1.43465300       1.60380800       0.74891000
C       -1.18185425      -0.31686872      -1.27339445       0.14605500       0.41777900       0.93841700
C        0.19468177      -0.55831872      -1.08177645       2.74666400       0.35547700      -1.65136200
H        3.00666382       0.32626629      -0.55718444       0.35020400      -0.81457300       0.41078300
H        2.54386881       0.60924830       1.09688159       0.70348100       0.03207300       0.86616300
H        2.79460282      -1.18235574       0.60862258       0.19626800       1.10230100      -0.28685200
H        0.72437578       0.73852630       2.06162161      -0.35031900      -0.23814200      -1.45627500
H       -1.83622326       0.89552830       1.82788060       1.21900700      -0.34574800      -0.18849600
H       -3.03230928       0.50104229      -0.06442343       2.51610800      -1.25770000      -0.73264600
H       -1.62378426      -0.29750672      -2.27816047       0.01919700      -0.59558500       0.28679500
H        0.88812878      -0.91333373      -1.90908946      -1.28240700       0.11029200       0.32587800
15
Lattice="10.0 0.0 0.0 0.0 10.0 0.0 0.0 0.0 10.0" Properties=species:S:1:pos:R:3:forces:R:3 id=SCAN_5 energy=-91.95143119 stress="-0.0020184104286737575 0.0006438054248257322 -0.0020558095513560502 0.0006438054248257322 0.000781855123672018 0.00045420086059965055 -0.0020558095513560502 0.00045420086059965055 0.0005000010545653819" pbc="T T T"
C        2.51787724      -0.20201487       0.16608228      -1.43528400       2.59016300      -0.42604400
C        0.96451121      -0.07806587       0.05908928       0.88735300      -1.48144200       0.11157200
C        0.33812120       0.44425214      -1.06445674       0.37275400       0.28879400       0.19420700
C       -1.02593082       0.53688715      -1.15353174      -2.76573800       1.12811500      -0.32326700
C       -1.90398684       0.21171414      -0.10326472       2.14360000      -1.01328100       0.46325800
C       -1.25669083      -0.36883987       1.01853330      -4.17947500       0.74828800       0.12672600
C        0.06848420      -0.55045287       1.03842630       2.67717800      -1.24991000       2.31183900
H        2.90261824      -0.88247288       0.89221530       0.04487500      -0.76824500       0.63666400
H        3.02285225      -0.32177387      -0.80371973      -0.25614600      -0.22073200       0.02179800
H        2.79425324       0.84661015       0.50185829       0.22452000      -0.86595300      -0.12169200
H        0.84912121       0.89652215      -1.88338475       0.94430600       0.09571800      -0.62721800
H       -1.48178883       1.05423315      -2.02439775       0.38016500      -0.44341500       0.16940000
H       -2.97163286       0.22876814      -0.11599572      -0.71056500       0.42687200      -0.34543800
H       -1.91577384      -0.62043187       1.91784332       0.98734000      -0.00053100      -1.08381500
H        0.34399720      -1.12382188       1.98140032       0.68511600       0.76555900      -1.10799000
15
Lattice="10.0 0.0 0.0 0.0 10.0 0.0 0.0 0.0 10.0" Properties=species:S:1:pos:R:3:forces:R:3 id=SCAN_6 energy=-91.72403684 stress="0.006650159452882214 -0.0012883910382921998 0.0007632429434586343 -0.0012883910382921998 0.0015032674729689827 0.000739568899344159 0.0007632429434586343 0.000739568899344159 0.0006596775825328533" pbc="T T T"
C        2.49541367      -0.28963551       0.06160424      -1.02362700       1.05361700       2.61203500
C        0.98194864      -0.06485951       0.10204324      -0.70705400      -0.28412800      -0.61021300
C        0.21901563      -1.03634353      -0.59535077      -1.42082200       0.08388700       1.70491600
C       -1.20776739      -0.93486152      -0.63835277       0.26588700      -1.54466800      -0.52381400
C       -1.89479641       0.11395749      -0.07451276       0.24719900       1.01434300       0.56077500
C       -1.17710139       1.15470851       0.50846625       3.02344400      -0.26664800      -0.02480000
C        0.28001463       1.07301751       0.62759525      -0.78480900       0.76454400      -1.58377800
H        2.90934968      -0.20539351       1.11047926      -0.36097500      -0.62478800      -0.47490000
H        2.77474868      -1.25703953      -0.37024076       0.19885100       0.49108000      -0.35163000
H        2.87696468       0.65430250      -0.28662676       0.89107100       0.16812000      -1.30896200
H        0.69970764      -2.00541454      -0.73958477      -0.04652200       0.05529700      -0.77378100
H       -1.87172841      -1.72168154      -1.07810578       0.92821400       0.25670700       0.12316200
H       -2.97394942       0.17764249      -0.05573876      -0.34902500      -0.16417400      -0.28796700
H       -1.62234740       2.09819653       0.76631626      -0.43179000       0.33034200       0.38779000
H        0.81826964       2.06907553       0.75479626      -0.43004300      -1.33353200       0.55116900
15
Lattice="10.0 0.0 0.0 0.0 10.0 0.0 0.0 0.0 10.0" Properties=species:S:1:pos:R:3:forces:R:3 id=SCAN_7 energy=-91.95191873 stress="-0.004763850564857774 -0.0016558536465694506 -0.0012525835004370076 -0.0016558536465694506 0.0008595369462527611 -0.0009016359253068436 -0.0012525835004370076 -0.0009016359253068436 -0.0007705517506450436" pbc="T T T"
C        2.38932400      -0.27684020       0.18652289       0.95503100       0.89366000       2.22225400
C        0.91646097      -0.11684819       0.10203988       1.30321000       2.44637900       1.20349600
C        0.25453996      -0.86063621      -0.80637613      -2.11318300      -1.39916000      -0.81848000
C       -1.17565206      -0.84337221      -0.82603813       1.70661700      -0.17539400      -1.72765600
C       -1.85514807       0.12360681      -0.13311312       1.18921700       0.23165200       0.85952100
C       -1.11488806       1.04223683       0.62200689      -0.08491800       0.17242700       1.48633200
C        0.25540296       0.96098582       0.81192090       0.17691600      -1.50200400      -1.02047400
H        2.75434801      -1.06883921       0.89542390      -0.42593100       0.20803900      -0.57952200
H        2.85193401      -0.39032220      -0.75943913       0.49943400      -0.52160400      -1.24710400
H        2.83820501       0.65624182       0.59823189      -0.10919100      -0.25969100      -0.06368700
H        0.80276797      -1.54773722      -1.49016314      -0.35100200       0.30290300       0.54634400
H       -1.55882207      -1.48651122      -1.60995915      -0.87256500      -0.27160800       0.21767600
H       -2.88285309       0.14607381       0.07793088      -1.68326900      -0.12951800      -0.47230800
H       -1.65863507       1.68400384       1.31945191      -0.15131000       0.38908100      -0.35550500
H        0.78183597       1.66021284       1.48095491      -0.03905700      -0.38516100      -0.25088800
15
Lattice="10.0 0.0 0.0 0.0 10.0 0.0 0.0 0.0 10.0" Properties=species:S:1:pos:R:3:forces:R:3 id=SCAN_8 energy=-91.85056424 stress="0.0023496223519478784 0.0038160586795650243 0.0014277889031096766 0.0038160586795650243 0.0010028419957830409 0.0021439958337956546 0.0014277889031096766 0.0021439958337956546 0.0018647070249397562" pbc="T T T"
C        2.47574632      -0.31267988       0.12564137      -0.72920500       0.72515100       1.97034700
C        0.95505229      -0.09176787       0.07179137       0.05491400      -0.64751100      -1.24465700
C        0.36224628       1.06385515       0.54430638      -2.20040100      -0.66718700       0.57319200
C       -1.06974074       1.17700415       0.56917238       0.83103000      -1.39213100      -1.45744800
C       -1.87536375       0.17223413      -0.06191463       0.22016900       1.14470600       0.73208200
C       -1.25909674      -0.90292689      -0.72115964      -0.46373000       0.12456500       0.42745400
C        0.08497828      -1.07309389      -0.55578264       2.66432600       1.05094800      -0.31549000
H        3.18361733       0.55902814       0.16638238      -0.84680300      -0.06611600      -1.29125200
H        2.64411932      -0.49520588       1.21907839       0.05706800      -1.20448100      -0.45475600
H        2.74911533      -1.12103489      -0.54991064       0.52477000      -0.10363800       0.19706700
H        0.91083729       1.78535416       1.10410139       0.69387900       0.83633200       0.11261700
H       -1.47503175       2.12167216       0.89042339      -0.50249400       0.15262500       0.48986700
H       -2.96445677       0.24075213       0.03014537       0.09537500       0.14264600      -0.35982500
H       -1.73987375      -1.61979990      -1.39619665      -0.49311200       0.16973700       0.43032200
H        0.57541929      -1.85922491      -1.13128265       0.09421300      -0.26564500       0.19048100
15
Lattice="10.0 0.0 0.0 0.0 10.0 0.0 0.0 0.0 10.0" Properties=species:S:1:pos:R:3:forces:R:3 id=SCAN_9 energy=-91.4439245 stress="0.00829475341698857 0.0017224879979973802 0.0011465465018973768 0.0017224879979973802 0.0023682345321612624 -0.0018999341024462412 0.0011465465018973768 -0.0018999341024462412 -0.002718545473360586" pbc="T T T"
C        2.44012008      -0.16475512       0.31430398       0.34531500      -0.99693100      -2.48627900
C        0.93925505      -0.11736712       0.10390398       0.61791200      -0.67901400      -2.53390700
C        0.19400904       0.57983089       0.97875699      -1.08987100       1.68867500       2.99020800
C       -1.25477699       0.62050090       0.97824999       2.44571500      -0.13123600       0.13793500
C       -1.85407100       0.09279889      -0.11723203      -2.22858500      -0.71717900       0.23844700
C       -1.06314398      -0.34375812      -1.19249805      -1.99759200      -1.73036400      -1.34687600
C        0.29070404      -0.63016413      -1.11780004       1.43459500       0.91394400       0.97239300
H        2.95408709       0.59739989      -0.37600103      -0.45577300      -1.09186600       0.57002100
H        2.78093708       0.07499789       1.30067400      -0.05662800       0.06231900       0.93546900
H        2.77274808      -1.23627514       0.04530398       0.01906600       1.47080000       0.28179800
H        0.82484705       1.09797390       1.78394701      -1.26890700      -0.61453100      -0.63137900
H       -1.80876300       0.93705290       1.82893501      -0.35131800       0.50301200       0.77502300
H       -3.01202602      -0.17659312      -0.08628803       2.28124700       0.97056100      -0.41578000
H       -1.82219900      -0.64676213      -1.96754906       1.59177900      -0.14326600      -0.25974900
H        0.97652605      -1.08937313      -1.90611406      -1.28695600       0.49507600       0.77267600
15
Lattice="10.0 0.0 0.0 0.0 10.0 0.0 0.0 0.0 10.0" Properties=species:S:1:pos:R:3:forces:R:3 id=SCAN_10 energy=-91.53754497 stress="0.0002840510803189471 0.0007323349902672603 0.0015517078252949628 0.0007323349902672603 0.003921009655516751 -0.0021055106885254585 0.0015517078252949628 -0.0021055106885254585 0.0007508722723711337" pbc="T T T"
C        2.39778706      -0.15323134       0.17815665       0.42641500      -0.02512200       4.66545300
C        0.93820203      -0.24784134      -0.01422735      -0.88997600       3.02659500      -1.36456900
C        0.38665102       0.74294168      -0.88963937       0.15848000       0.66006800       0.08486500
C       -1.00192300       1.01084668      -0.92833537       0.62205100      -1.48706400       0.07451000
C       -1.85475702       0.18587567      -0.11657535       1.12126700       1.44234000      -1.20871100
C       -1.27872401      -0.70377635       0.80409666      -2.18618900       0.57671600       0.41160800
C        0.07359902      -0.86705535       0.88039067       2.92673600      -1.65439700       0.33860700
H        3.02816807      -0.73672635      -0.39552436       1.39275100      -0.76428200      -2.30794200
H        2.82115207       0.87998368       0.45748666      -0.64990800      -1.20120200      -0.90949000
H        2.59883306      -0.74894335       1.16132367      -0.22955400       0.90076700      -0.82745300
H        1.11469204       1.44677469      -1.40902737      -0.89967100      -0.93469200       0.31032500
H       -1.34949001       1.76758770      -1.64959938      -0.24838800      -0.23721900       0.44219900
H       -2.92230203       0.36704867      -0.24241535      -0.11150800      -0.27930200       0.48139400
H       -1.98730402      -1.06061635       1.56268068       0.36998300      -0.57072400      -0.12928800
H        0.73462903      -1.53122836       1.54065168      -1.80248800       0.54751900      -0.06150700
15
Lattice="10.0 0.0 0.0 0.0 10.0 0.0 0.0 0.0 10.0" Properties=species:S:1:pos:R:3:forces:R:3 id=SCAN_11 energy=-91.75568745 stress="-0.009269633451887653 0.0013165402444499333 -0.0007301504620732011 0.0013165402444499333 -0.007151508673418784 0.0010631162494116953 -0.0007301504620732011 0.0010631162494116953 0.000698668290042246" pbc="T T T"
C        2.40463312      -0.24428959       0.29033625       0.67182800      -1.10214900       1.75499300
C        0.97870110      -0.00845659       0.04633624      -1.20392500      -0.81283400      -0.25583800
C        0.16735908      -1.15762661       0.11884125      -0.08406500       2.86246300       0.06161000
C       -1.17660394      -1.07192160       0.08771124      -1.65478400       0.07996900      -0.38340700
C       -1.85950295       0.15309442      -0.05225176       1.45372300      -1.53300400      -0.19394900
C       -1.09842094       1.28254644      -0.27188376      -0.18463300      -1.36941800      -0.13578800
C        0.28628009       1.14032143      -0.25902276       0.93673200       2.08300500       0.12551700
H        2.47893412      -0.66413860       1.35542527       0.09740000       0.53788800      -0.98633300
H        2.70479413      -1.08721060      -0.31863076       0.40551600      -0.39006100      -0.42030100
H        3.16652114       0.51280042       0.21527825       0.02646300       0.85851100      -0.24831500
H        0.52235209      -2.06962662       0.33917725       1.91901100      -3.37327500       0.52695100
H       -1.72239295      -2.01637362       0.05295724      -0.31067600       0.07803700       0.32509500
H       -2.88513297      -0.02717159      -0.13168976      -1.94740400       0.81912600      -0.09625900
H       -1.56508895       2.17258345      -0.59898277      -0.35401900       1.24872000      -0.07772100
H        0.84294310       2.06384945      -0.43805576       0.22883400       0.01302200       0.00374500
15
Lattice="10.0 0.0 0.0 0.0 10.0 0.0 0.0 0.0 10.0" Properties=species:S:1:pos:R:3:forces:R:3 id=SCAN_12 energy=-91.54030248 stress="0.0008429345319779116 0.0011035362625109154 -0.0008028328358441119 0.0011035362625109154 0.007546958208616498 0.00017430662535854177 -0.0008028328358441119 0.00017430662535854177 -0.001316552727468185" pbc="T T T"
C        2.37137056      -0.29105765       0.29926265       2.90611100      -2.14985600      -1.29000000
C        1.01093153      -0.03368264      -0.02949136      -4.95827100       2.10664800       0.40817200
C        0.14029152      -1.06404666      -0.46999336       3.33823200      -1.48909500      -1.18526600
C       -1.22780151      -1.13003066      -0.42647836       0.02218500       1.48265500      -0.09150800
C       -1.81730152       0.07249336      -0.04431536      -1.35238200       0.61508700       0.70186200
C       -1.10149450       1.27171238       0.25135965       0.03594100       0.07103800      -0.04090100
C        0.31958052       1.22684838       0.33575965       0.60529400      -1.01483600       0.17958200
H        2.64598756      -1.40175267       0.45049465      -0.54497700       1.31761500      -0.52708900
H        3.15846057       0.15470636      -0.35455436      -0.40071400      -0.21700700      -0.11999100
H        2.56903156       0.13283936       1.21934067       0.56426200       1.09854100       2.40591000
H        0.78011553      -1.86464467      -0.94183237      -0.95354600      -0.01057600       0.60877000
H       -1.84187852      -1.96965868      -0.75524637       0.26216100      -0.08235700       0.14489800
H       -2.90772453      -0.00364064       0.14546065       0.34096100       0.64630900      -0.35375100
H       -1.68026651       2.24965040       0.40727665       0.84445600      -1.42136000       0.08848700
H        0.90099153       2.08052939       0.82800166      -0.70971100      -0.95280600      -0.92917300
15
Lattice="10.0 0.0 0.0 0.0 10.0 0.0 0.0 0.0 10.0" Properties=species:S:1:pos:R:3:forces:R:3 id=SCAN_13 energy=-91.48587397 stress="0.005810252052830354 -0.004314274662520403 0.005270261649295439 -0.004314274662520403 0.00026240552667038396 0.0017289105108879144 0.005270261649295439 0.0017289105108879144 -0.003438528517067723" pbc="T T T"
C        2.50140400      -0.11118293       0.19390999      -0.35970700       0.13211600      -1.52046400
C        0.95132697      -0.19561293      -0.00089401       0.90046900       0.81970100      -0.33083600
C        0.12150396      -0.89860695       0.86923100      -0.73649900       0.50527900       1.68251800
C       -1.26859006      -0.69955294       0.82493500      -0.48480800       1.37546700      -0.74669200
C       -1.89265707       0.23468007      -0.07759501      -0.22450400      -1.73770400       1.03066600
C       -1.08851106       0.95333609      -0.89564203       3.04033100       0.30772700      -2.13302900
C        0.34600296       0.67839108      -0.95613803      -4.57755900      -2.64176100       5.13927600
H        2.79375501       0.92431409       0.42795399      -0.22277100      -0.07534500       0.58484500
H        2.98766101      -0.82368194       0.86599000      -0.42180800      -0.02649700       0.35832400
H        3.06807401      -0.22288693      -0.76339103      -0.52467200      -0.29242600       0.06298400
H        0.50958097      -1.35107995       1.81748202      -0.02937600      -0.09904000      -0.98801600
H       -1.92404908      -0.99302995       1.62267002      -0.15178900      -0.96449800       0.43944400
H       -2.99307409       0.27288507      -0.21298302       0.53909100       0.21643000       0.58641600
H       -1.48161007       1.68800410      -1.61117404      -0.03615100      -0.19105600       0.09402100
H        0.96320398       0.96446609      -1.64416204       3.28975400       2.67160900      -4.25945700
15
Lattice="10.0 0.0 0.0 0.0 10.0 0.0 0.0 0.0 10.0" Properties=species:S:1:pos:R:3:forces:R:3 id=SCAN_14 energy=-91.68468112 stress="0.0028302560036956447 -7.119065308982444e-05 0.001439997294959904 -7.119065308982444e-05 -0.0011858555263721897 0.0010623547852983378 0.001439997294959904 0.0010623547852983378 0.0029835911583912184" pbc="T T T"
C        2.40278399      -0.20956564       0.16552447       1.15849800       0.35770300       2.03109100
C        0.97873196      -0.06969964      -0.00933553      -1.67929100      -1.05301900      -0.32289600
C        0.22166695      -0.58960165      -1.07613055       0.79828000      -0.32958600      -1.19314300
C       -1.16997208      -0.49615365      -1.12331455      -0.79655400       1.75422000       1.26629300
C       -1.94545909       0.15432336      -0.03285053       2.25924500      -0.32798400      -1.18440200
C       -1.12524607       0.68466337       1.02838649      -0.18543100      -0.30898600       0.21173400
C        0.30702695       0.52824837       1.02159749      -3.05410300      -0.12912100      -0.65115000
H        2.87078999      -0.88711865      -0.47919654       0.85019400      -1.36196400      -0.97130300
H        2.83907199       0.74138238       0.00326947       0.84895000       1.42291300      -0.63682000
H        2.72382899      -0.35233164       1.25132149      -0.51030800      -0.46620200      -1.05312900
H        0.79126496      -1.04274666      -1.95869357      -0.82604600       0.47592800       1.03095400
H       -1.63001208      -0.65855865      -2.09967957      -0.36563900      -0.52323900       0.24001400
H       -3.05671611       0.24933437      -0.20378453       1.17344100       0.07956400       0.67818900
H       -1.52590108       1.19134738       1.95195850      -0.05436400      -0.49326300      -1.00829000
H        0.92249196       0.73232338       1.84584350       0.38312800       0.90303500       1.56285900
15
Lattice="10.0 0.0 0.0 0.0 10.0 0.0 0.0 0.0 10.0" Properties=species:S:1:pos:R:3:forces:R:3 id=SCAN_15 energy=-91.3506653 stress="-0.0010874456519843884 0.0015794513333595138 0.004730832981581852 0.0015794513333595138 -0.0009949527282479243 -0.0005417380260901633 0.004730832981581852 -0.0005417380260901633 -0.0015942749175334866" pbc="T T T"
C        2.42030737      -0.07181155       0.27165253       1.33775200      -1.01601700       1.43490700
C        0.94594435      -0.12033255       0.07809553      -0.27543000      -0.42488700      -0.69923500
C        0.24552134       0.65249247       0.98196755      -1.38367600       0.45562000       1.90863200
C       -1.14953869       0.66626247       0.89834954      -0.52159200       1.49541800      -0.99225700
C       -1.81636670       0.27387346      -0.27537248      -1.21545100       0.26599300       3.10463800
C       -1.16228469      -0.58650656      -1.06068549       2.32524700      -1.02312500      -1.78749100
C        0.21195033      -0.80935456      -0.98979149       1.89949000       0.35427800       2.65444500
H        2.99679238      -0.99888756      -0.00716847      -0.36597000       0.92286900      -0.07980600