15
Lattice="10.0 0.0 0.0 0.0 10.0 0.0 0.0 0.0 10.0" Properties=species:S:1:pos:R:3:forces:R:3 id=SCAN_0 energy=-91.01847099 stress="0.004441077161921847 -1.9217606598594552e-05 -0.002850478493263507 -1.9217606598594552e-05 -0.0004944211454068424 0.0009849600721373853 -0.002850478493263507 0.0009849600721373853 -0.0010517567028025879" pbc="T T T"
C        2.48936904      -0.13088275       0.09520748       1.59645300       0.05664800      -1.23675800
C        1.01088202      -0.10390075       0.17978049      -1.95621900      -0.10515700      -1.16480800
C        0.36647401       0.04650925      -1.03945753      -0.62493900       2.36470200      -2.83892400
C       -1.04326602       0.29576626      -1.28419154       1.55119800       0.01958000       1.34583000
C       -1.95466704       0.26023426      -0.17410552       1.83616000      -1.48752600      -2.13953200
C       -1.29067602      -0.14229075       1.01923950      -0.52964100       1.07591700      -1.08030800
C        0.06326400      -0.22217075       1.25691751       1.15465200       0.44413900      -4.18862100
H        2.94467905       0.48672926       0.86545150       0.42788000       0.12087400       0.15799000
H        2.89060405      -1.12824977       0.14480949       0.11506600      -1.04526800       0.96649700
H        3.02173405       0.05890725      -0.96031753      -1.69390600       0.59390800       1.78636600
H        1.01439802       0.38234726      -1.94685955      -0.82639300      -1.03718400       1.30862300
H       -1.19401502       0.64314926      -2.31804256      -0.78652700      -0.29477200       0.37402900
H       -3.03245305       0.20586626      -0.46001152       0.59765600       0.41560300       1.04814200
H       -1.83283003      -0.24149675       1.88622952      -1.77916200      -0.41182600       2.05166300
H        0.45791001      -0.44612576       2.15303052       0.91772300      -0.70963900       3.60981300
15
Lattice="10.0 0.0 0.0 0.0 10.0 0.0 0.0 0.0 10.0" Properties=species:S:1:pos:R:3:forces:R:3 id=SCAN_1 energy=-91.63924324 stress="0.0022287305616886456 -0.0005131893633483732 -0.00017094869344881657 -0.0005131893633483732 -0.0010248495569609051 0.0009500263455598166 -0.00017094869344881657 0.0009500263455598166 0.00014993353222196763" pbc="T T T"
C        2.45660405      -0.14171693       0.16624200       0.77306300      -2.29001500      -1.91282500
C        1.00333003      -0.03645493      -0.00172601      -2.66138700      -1.02864000       1.63979800
C        0.15455701      -1.25477395      -0.00494101       1.06318300       4.12394300      -1.07218800
C       -1.22045401      -1.08984694      -0.07242001       0.96918900      -2.01218400      -0.24173200
C       -1.89940102       0.08852208      -0.09859201      -0.70067000       2.14849500       0.93041200
C       -1.11496301       1.27186310      -0.07379401      -0.29295900      -0.18680600      -0.00594700
C        0.30022902       1.20227910       0.08047999      -0.54785300      -0.87504200      -0.77561400
H        2.84219406      -0.68542094       0.99866901      -0.43652300      -0.94818300       1.37118200
H        2.89443306      -0.80837494      -0.66873202      -0.33392300       1.19822800       0.58353500
H        3.00169206       0.74026309       0.29237800       0.73147000       2.02048400      -0.55294200
H        0.55417002      -2.17731696      -0.32408201       0.73200100      -1.28435700       0.21137100
H       -1.66413102      -2.04086096      -0.26514401      -1.22926600      -0.64952200       0.21253000
H       -3.01559004       0.13879708       0.07690499       1.10386500      -0.04608700      -0.79286200
H       -1.65685802       2.23168511      -0.24457801       0.61654100      -0.40531900       0.53163700
H        0.85544103       2.12648511       0.19115400       0.21326700       0.23500400      -0.12635500
15
Lattice="10.0 0.0 0.0 0.0 10.0 0.0 0.0 0.0 10.0" Properties=species:S:1:pos:R:3:forces:R:3 id=SCAN_2 energy=-91.70085845 stress="0.0048760479329046525 -0.0021444951545257253 0.003801041608608149 -0.0021444951545257253 0.0007075437160192521 -0.001989094060309484 0.003801041608608149 -0.001989094060309484 0.002284423547618902" pbc="T T T"
C        2.50967104      -0.39334375       0.09736351      -2.44029900      -1.06436800      -1.23523200
C        0.92544201      -0.11267474       0.11567851       2.11729200       0.93333400      -2.34217400
C        0.17987900      -0.27728175       1.23832953      -2.91426400      -0.01373900      -0.59805300
C       -1.21830002      -0.10773074       1.08505353      -2.13675100      -0.40823100       0.63035100
C       -1.85188603       0.18877526      -0.14102649      -1.36203500      -0.18544600       1.28028600
C       -1.09965602       0.40681527      -1.28609751      -0.81214400       1.78252300      -1.48906000
C        0.26608900       0.36602826      -1.11479451       1.29736800      -1.48217200       2.02883200
H        3.07701405       0.22929026       0.73917653       0.50748500       1.05148300       0.80118000
H        2.66771704      -1.43777977       0.46420452      -0.03356400       0.44441600      -0.38560300
H        2.88250005      -0.29604675      -0.95394950      -0.13464800      -0.14576500       0.69538400
H        0.43847800      -0.68450375       2.16956155       1.17707900      -0.36886500       1.29842800
H       -1.99453804      -0.31183675       1.92882755       1.69382600       0.33972200      -0.98695800
H       -2.98272605       0.24702426      -0.11229249       1.21899700      -0.03036200      -0.28688700
H       -1.59058303       0.85151827      -2.27325753       1.04681100      -1.19689800       1.91109100
H        0.94036601       0.56185727      -1.89686152       0.77484500       0.34436700      -1.32158500
15
Lattice="10.0 0.0 0.0 0.0 10.0 0.0 0.0 0.0 10.0" Properties=species:S:1:pos:R:3:forces:R:3 id=SCAN_3 energy=-91.23259416 stress="0.002469933681858404 0.0013084762146592921 0.0075392749108825355 0.0013084762146592921 -0.002193210133253244 -0.0017740116558315469 0.0075392749108825355 -0.0017740116558315469 -0.0022375435725743927" pbc="T T T"
C        2.45949782      -0.18797597       0.24943678       1.07096700      -1.55563600      -2.24535000
C        1.00592179      -0.09980997       0.10814877      -1.80302200      -1.64584600      -2.40333100
C        0.24603978      -0.54518698      -1.06234325       0.09476000       0.99568400       0.39438000
C       -1.15822624      -0.33796898      -1.16995125       1.60813900      -0.27842000      -0.30187900
C       -1.90325726       0.31606504      -0.18657023       0.35048200      -2.31464700      -0.28698300
C       -1.19681124       0.49299504       0.99212679       0.80711000       1.89049800       0.59276900
C        0.21462378       0.41135804       1.07564679      -0.41872700       0.11367400       2.58511700
H        2.96927183      -0.31097298       1.20342779      -0.31033300       0.44994700       0.26533000
H        2.92202883      -0.92958899      -0.46548524      -0.66812600      -0.51077300       0.82302300
H        2.79405382       0.59279804      -0.39075023       0.98455000       1.95117300       0.20833200
H        0.78390279      -0.90583499      -1.93587126       0.09032800      -0.45344400      -0.02605700
H       -1.76760425      -0.76738198      -1.96650326       0.56297600       0.03544600      -0.52480900
H       -2.95388828       0.10113903      -0.43520723      -0.18547800       1.15724700       1.13099700
H       -1.55170725       1.00810705       1.85814981      -1.13115100       0.05732200       0.69879200
H        0.75952879       0.62263004       2.05491181      -1.05247500       0.10777700      -0.91033100
15
Lattice="10.0 0.0 0.0 0.0 10.0 0.0 0.0 0.0 10.0" Properties=species:S:1:pos:R:3:forces:R:3 id=SCAN_4 energy=-91.45765726 stress="0.0032829776266324606 -0.0010248932475247863 9.543267453475503e-05 -0.0010248932475247863 -0.0011156385487060031 0.0018343171170058306 9.543267453475503e-05 0.0018343171170058306 0.0016883094940240435" pbc="T T T"
C        2.48318466      -0.21794646       0.33016818      -2.28994300       0.49124400      -2.63200900
C        0.99044063      -0.06856045      -0.01284782      -1.16097800      -1.88736000      -0.24056100
C        0.23403462       0.55486956       0.99874019       0.06784600       1.24041500      -0.15186700
C       -1.13861240       0.79594456       0.90844619      -2.18228200      -0.08172700       2.53031500
C       -1.90366142       0.16931455      -0.11472682       3.77474700       0.29182700       0.26673200
C       -1.19726441      -0.51720946      -1.11026984       1.84683700      -0.03241900       1.35599800
C        0.24814962      -0.70162947      -1.07767484      -0.94510100       1.80503800       0.43109800
H        3.03620367      -0.77400047      -0.40199283       0.44573300      -0.46534600      -0.34964500
H        2.74544566       0.79864956       0.31018918       1.35204100       1.58055000       0.11991800
H        2.54572066      -0.57576346       1.29542820       0.46306700      -1.05353300       2.18161100
H        0.80708663       1.04183657       1.80947021      -0.31765800      -0.31658600      -0.06856400
H       -1.72281641       1.26911357       1.90068221       1.55241300      -0.92571900      -2.73531900
H       -2.92429444       0.17795755      -0.23793483      -2.47953000       0.36092600       0.25512800
H       -1.84989942      -1.03979547      -1.75974685      -0.15397900      -0.61061600      -1.38602900
H        0.74086263      -1.07401447      -1.98540086       0.02678800      -0.39669400       0.42319600
15
Lattice="10.0 0.0 0.0 0.0 10.0 0.0 0.0 0.0 10.0" Properties=species:S:1:pos:R:3:forces:R:3 id=SCAN_5 energy=-91.94365302 stress="-0.000611798966028203 0.004641304774680183 0.0012407183915887033 0.004641304774680183 0.0061417510855242665 -0.0002621745908327263 0.0012407183915887033 -0.0002621745908327263 0.00015690529791557924" pbc="T T T"
C        2.39385823      -0.17579694       0.25004914       0.62801100       1.65311900       1.18088600
C        0.93587321      -0.02954994      -0.09053487       0.61529600      -0.21674200       1.49236900
C        0.34285020       1.22799708       0.06526714      -1.34220800       0.58574600      -0.67550900
C       -1.07304583       1.29331608       0.02383614       0.48986600      -1.85842400      -0.27752800
C       -1.83909584       0.07917906      -0.04108986      -1.05689800       1.38032400      -0.17201000
C       -1.21335883      -1.19899596      -0.10970787      -2.30887000       0.99337400      -0.13747300
C        0.15288619      -1.20399996      -0.16590387       0.01101700       1.08987300       0.06904500
H        2.81147824       0.80722807       0.62671715      -0.63791400      -0.54786300      -0.04209400
H        2.62373924      -0.87884595       1.08167915      -0.23015700      -0.06197600      -0.67586500
H        3.03520624      -0.29125194      -0.58973987       0.68260900      -0.94638400      -1.10133700
H        0.86477721       2.22710610       0.12711314       0.00040300      -1.29252100       0.06127500
H       -1.51254084       2.27597010      -0.01207986      -0.58657600       0.24882400       0.17615900
H       -2.97721286       0.23912206      -0.09430187       1.54806600      -0.60607500       0.18319100
H       -1.86035884      -2.13229298      -0.13385287       0.92250300       1.02223700      -0.00226000
H        0.58734920      -2.15355998      -0.19486987       1.26485200      -1.44351200      -0.07885000
15
Lattice="10.0 0.0 0.0 0.0 10.0 0.0 0.0 0.0 10.0" Properties=species:S:1:pos:R:3:forces:R:3 id=SCAN_6 energy=-91.87579594 stress="0.00415910450414182 0.002969310585511198 -0.0034997889291382674 0.002969310585511198 0.00248255401331094 -0.00018869330389370263 -0.0034997889291382674 -0.00018869330389370263 0.000685998026516703" pbc="T T T"
C        2.47155928      -0.03464427       0.22844587      -0.96649600       1.92355200      -0.75559200
C        0.95000925      -0.00117727       0.02179686       0.57886400      -2.20107300       0.56752400
C        0.30468724       0.85145974      -0.81960315       0.92576000       3.05171300      -0.61263300
C       -1.06569979       1.00540975      -0.79783615      -2.79893700      -0.20776200       0.63629200
C       -1.90820980       0.08935473      -0.01820514       2.99831500       0.28198300      -1.41575000
C       -1.22954579      -0.99452429       0.59871787      -1.82182200      -0.10158900       1.36558900
C        0.15941324      -0.94767929       0.72175287       0.81584300      -0.03752400      -0.86479000
H        2.69387728       1.00635775       0.57905387       0.37638100      -0.56527800      -0.10085100
H        2.64285528      -0.70207628       1.03871688       0.67550300      -0.77170700       0.69426400
H        3.12728729      -0.22597227      -0.66177715      -0.67338000      -0.09057300       0.50380800
H        0.94610225       1.68424076      -1.25853416      -0.84469500      -1.00343500      -0.05408800
H       -1.54817179       1.88629276      -1.32291516       0.50275800      -1.03638200       0.47155100
H       -2.97166582       0.17349173       0.02978786      -0.71321800       0.14170300      -0.11151500
H       -1.90514180      -1.77750630       1.14788888       1.47473600       1.20177400      -0.87670400
H        0.79868525      -1.66618030       1.22090088      -0.52961000      -0.58540300       0.55289500
15
Lattice="10.0 0.0 0.0 0.0 10.0 0.0 0.0 0.0 10.0" Properties=species:S:1:pos:R:3:forces:R:3 id=SCAN_7 energy=-91.76410996 stress="-0.004825104735419193 -0.0021844907450043853 -0.0027914026093870214 -0.0021844907450043853 -0.004165339771758578 -0.005304427670250523 -0.0027914026093870214 -0.005304427670250523 -0.0031131399218080513" pbc="T T T"
C        2.37936921      -0.24785578       0.16391616       1.69981100       1.47564100       0.07408600
C        0.91454619      -0.16671077       0.17702716       1.26278500       4.31222700       1.43289600
C        0.29214218      -0.95524779      -0.66189186      -3.84640200      -1.12242800      -0.38961200
C       -1.11612885      -0.87347779      -0.70306186       0.30392900      -2.68753900      -1.97869000
C       -1.84041386       0.14164323      -0.17352785      -1.55744100      -0.43996100       0.93231100
C       -1.16972185       1.13050625       0.52945516       1.31791200       0.89105000       0.16986800
C        0.21356018       1.00265425       0.66762317       0.07670000      -1.16953600      -0.02214600
H        2.89213822       0.04051423       1.08525617      -0.13435100       0.38492100       0.32921600
H        2.74464822      -1.24212779      -0.00047285       0.14043700      -0.86968300      -0.51017900
H        2.78677522       0.44038524      -0.64436286      -0.20079700      -0.70014400       0.65596000
H        0.84079219      -1.67493680      -1.16796087       0.72693800      -1.72128200      -1.09367600
H       -1.61781886      -1.75411880      -1.18796087       0.09521700       0.91678700       0.20109300
H       -2.92950788      -0.01952377      -0.12488585       0.22509400       0.60228200      -0.21542100
H       -1.61795786       2.04455526       0.92186917      -0.33011700      -0.15282600      -0.01224900
H        0.79025819       1.79004926       1.12399417       0.22028500       0.28049000       0.42654200
15
Lattice="10.0 0.0 0.0 0.0 10.0 0.0 0.0 0.0 10.0" Properties=species:S:1:pos:R:3:forces:R:3 id=SCAN_8 energy=-91.84072839 stress="0.0014614306372981874 -0.0015765552731251042 0.00026135695313723556 -0.0015765552731251042 0.00014925944923637222 0.0011137536129499862 0.00026135695313723556 0.0011137536129499862 -0.0015321531772035705" pbc="T T T"
C        2.49617136      -0.24405236       0.08890642      -1.47170600       2.36881400      -1.06975200
C        0.95426933       0.00267465       0.12667342      -0.37303100      -0.68227600      -1.09665700
C        0.12854332      -0.85325737       0.83536443       0.96596200      -0.03696800       0.34349200
C       -1.27941571      -0.82732537       0.70381943       0.72336700      -2.67544100       2.39263100
C       -1.86077272       0.05344565      -0.13495359      -0.11836500       0.69055200      -1.67978700
C       -1.05394670       0.98623767      -0.85127760      -2.74985300      -0.37987500       0.04246400
C        0.28004632       0.93730066      -0.74677460       3.47963200      -0.05385900       1.48671000
H        2.79969536      -0.79516537      -0.80646860      -0.21003900      -0.10097100      -0.27079000
H        2.87441036       0.81127666      -0.06015059       0.49565300      -0.98397800       0.43569300
H        2.92799436      -0.77205637       0.92331543       0.01152700       0.06820800       0.75309800
H        0.76314133      -1.52112938       1.44037444      -1.08755600      -0.38297100       0.28322600
H       -1.84240372      -1.62935938       1.31038544       0.48748900       1.24935600      -1.02717800
H       -2.87855574      -0.09010135      -0.47200659      -0.53035000       0.31585300       0.38581100
H       -1.63894371       1.67062568      -1.47768461       0.58827100       0.14737800      -0.09400700
H        0.98469733       1.67075368      -1.11683260      -0.21100200       0.45617700      -0.88495300
15
Lattice="10.0 0.0 0.0 0.0 10.0 0.0 0.0 0.0 10.0" Properties=species:S:1:pos:R:3:forces:R:3 id=SCAN_9 energy=-92.10577815 stress="0.0013116281767678632 0.0012727560579318623 -0.0010684652227325774 0.0012727560579318623 -0.0003746028947172614 0.0024212187031308853 -0.0010684652227325774 0.0024212187031308853 -0.00039509376917753607" pbc="T T T"
C        2.46752551      -0.31706392       0.12369355      -0.99777700      -0.49760300       0.15489400
C        0.91400748      -0.15590192       0.02943755       2.12659800       1.56848600      -0.40507200
C        0.38999348       0.96461010      -0.63416446       0.05664300      -0.07850700      -0.12945400
C       -0.96651155       1.15687710      -0.75561746      -1.05910800      -1.65638300       0.69275100
C       -1.82186756       0.18275709      -0.18757845      -0.62599000      -0.91464400       0.16663100
C       -1.35483955      -0.84924093       0.64428956       1.17144600       1.00991100      -0.47882600
C        0.06529047      -0.94169693       0.74407756      -1.95167100      -0.97935800       1.09908000
H        2.65581852      -1.40405294       0.26451256       0.18273600       0.47100800       0.43475000
H        2.99287352      -0.09341992      -0.82270846      -0.30559600       0.36603400       0.17741000
H        2.88243952       0.31141009       0.95876657      -0.14249600      -0.59767900      -0.57534600
H        1.05345649       1.70700911      -1.02581647       0.59924700       0.41756100      -0.43260800
H       -1.44271156       1.95932012      -1.26909447      -0.01831500       0.82122600      -0.55798400
H       -2.88950458       0.07958908      -0.40864146      -0.04315000       0.85072200      -0.04059100
H       -2.07010757      -1.47360994       1.21487257       0.57102800       0.13649500      -0.35985100
H        0.46600848      -1.56657394       1.51511358       0.43640500      -0.91727000       0.25421500
15
Lattice="10.0 0.0 0.0 0.0 10.0 0.0 0.0 0.0 10.0" Properties=species:S:1:pos:R:3:forces:R:3 id=SCAN_10 energy=-91.90092819 stress="0.0015104514499728744 0.0006857858152064229 -0.0005940605970924426 0.0006857858152064229 -0.0004633883620329507 -0.0022524857454217576 -0.0005940605970924426 -0.0022524857454217576 -0.0008328170456848548" pbc="T T T"
C        2.46829118      -0.18780887       0.20763218       1.08840400       0.15673400      -1.24864200
C        0.96400016      -0.06167587       0.09285218      -0.99767900      -1.91323500      -1.13312000
C        0.26657215      -0.90489789      -0.83298384      -0.60242600       2.00119400       2.09153100
C       -1.12941388      -0.80731888      -0.85568984      -0.48018600       0.36211100      -0.77016000
C       -1.89112089       0.13908213      -0.14270283       2.76798800       0.48567400       0.21351700
C       -1.16705788       1.06190215       0.68001019      -1.88562000      -2.79017900      -1.39007100
C        0.14220614       0.78131314       0.85797719       4.59538900       1.60416200       1.12853700
H        2.85538719      -1.23754389       0.09971318      -0.60376500       0.51020800       0.07270300
H        3.02841819       0.36968314      -0.64263684      -0.92343700      -0.52866300       1.01110000
H        2.92035819       0.18558413       1.12896919      -0.24723100       0.24617400       0.30702500
H        0.79262616      -1.56389890      -1.45537585       0.67128800      -1.05631600      -1.00265100
H       -1.65793989      -1.34373789      -1.63102985      -0.22879400      -0.62812800      -0.09390900
H       -2.93189891       0.22025713      -0.29387283      -1.24823400       0.08687800      -0.15826400
H       -1.74219289       1.77013816       1.18619520      -0.49658500       1.41617400       1.10510200
H        0.86123216       1.35428615       1.52355620      -1.40911000       0.04721300      -0.13270100
15
Lattice="10.0 0.0 0.0 0.0 10.0 0.0 0.0 0.0 10.0" Properties=species:S:1:pos:R:3:forces:R:3 id=SCAN_11 energy=-92.0721403 stress="0.001189843850703629 -0.0003753331512849898 0.0004363688690270021 -0.0003753331512849898 0.0009426176742273933 0.0015739588053287365 0.0004363688690270021 0.0015739588053287365 0.003688176399084802" pbc="T T T"
C        2.38665342      -0.23246236       0.23562631       0.67900800      -0.46203900      -0.02474100
C        0.93423440      -0.03604236       0.03418431       0.45481700       0.28632800       1.69638300
C        0.20474238       0.54162665       1.09668233      -0.75866900      -0.37134400      -0.46186500
C       -1.20813264       0.61627265       1.00500233       2.19608600      -0.18821300       1.45234700
C       -1.84552565       0.07553764      -0.11881869      -1.07977200       1.01314300       0.56209800
C       -1.12548464      -0.38863237      -1.20583371       1.59318400      -1.35995700      -1.00411300
C        0.32864939      -0.51905037      -1.09527571      -1.90956300       0.09568400      -2.22923600
H        2.85758643       0.42906465       0.96840133      -0.12954900       0.15988300       0.08002200
H        2.61667543      -1.27053138       0.53620732      -0.04532500       0.07518400       0.01602500
H        2.85480843      -0.08112636      -0.72249970       0.73933200       0.08145700      -0.56393200
H        0.74635539       0.81939366       2.03047234      -0.42436900       0.03084700      -0.66002800
H       -1.58986565       0.98411966       1.98360734      -0.92093500      -0.17252100      -1.03309900
H       -2.94332167       0.14402764      -0.10515869       0.20664600      -0.23747900      -0.39197200
H       -1.64156465      -0.79984337      -2.13181473       0.53446100       0.58189200       1.11876200
H        0.96741840      -0.90676437      -1.98253373      -1.13535200       0.46713600       1.44334800
15
Lattice="10.0 0.0 0.0 0.0 10.0 0.0 0.0 0.0 10.0" Properties=species:S:1:pos:R:3:forces:R:3 id=SCAN_12 energy=-91.77500654 stress="-0.003644379729548479 0.00030050993988390125 -0.0017945961529287097 0.00030050993988390125 -0.0003067139999550292 0.0011342382459011353 -0.0017945961529287097 0.0011342382459011353 0.0030012483877083426" pbc="T T T"
C        2.38245616      -0.19302243       0.06784024       1.67127200       1.07867600       0.17427400
C        0.89779713      -0.13121043       0.11935224       1.29683100       1.76125500       1.17283400
C        0.20264212       0.80679258       0.95220725       2.84390700      -0.99131000       0.22025100
C       -1.14348890       0.96114659       0.80253725      -0.66644700       1.00958800       0.53118000
C       -1.75894891       0.26446057      -0.25194977      -2.35694200       0.78699900       0.45991100
C       -1.13741690      -0.70633944      -0.98688878       1.23892500      -1.09132500       0.14763400
C        0.23891912      -0.94662445      -0.70417378      -3.23337700      -1.46623200      -2.19981800
H        2.82728617      -0.06296543      -0.99258678      -0.73574900       0.37874300       1.42064900
H        2.89744017       0.49995058       0.83986125      -0.61197800      -0.84112600      -1.25652000
H        2.67851216      -1.19909845       0.29151824       0.48314400      -0.93917100       0.46604300
H        0.93733013       1.18941159       1.72294927      -1.38356000       0.39464200      -0.51514200
H       -1.71407891       1.67090860       1.47004826       0.40694900      -0.77998400      -0.77534100
H       -2.83613393       0.48128958      -0.37896077       0.34949100      -0.20722100      -0.18839500
H       -1.59702491      -1.40103046      -1.71768279      -0.23522700       0.70564100       0.37608200
H        0.59351913      -1.83575846      -1.22234278       0.93276100       0.20082500      -0.03364300
15
Lattice="10.0 0.0 0.0 0.0 10.0 0.0 0.0 0.0 10.0" Properties=species:S:1:pos:R:3:forces:R:3 id=SCAN_13 energy=-91.49039303 stress="-0.0009147867850350797 -0.0007983015002187206 0.0004109971344302867 -0.0007983015002187206 -0.000719358892794549 -0.0016096165469649073 0.0004109971344302867 -0.0016096165469649073 -0.0014306038237254497" pbc="T T T"
C        2.44230387      -0.38095612       0.16596340      -0.88986200       0.26245000      -2.82844200
C        0.95119584      -0.11276211       0.03406440      -1.58837200       0.11287800       0.89180800
C        0.20807183      -0.41319612      -1.18192363       2.27685200       0.95580500       4.88672300
C       -1.12563320      -0.28116511      -1.14588463      -1.40322100      -0.16879000      -3.17937300
C       -1.82642021       0.14943889      -0.07588061      -1.86855400       1.66514100       0.77600600
C       -1.16830020       0.61571990       1.05935441      -1.77614200       0.72966200       1.42529900
C        0.22661883       0.45113690       1.15422741      -1.08005500      -1.24074600      -3.26033800
H        2.74909787      -1.28446013       0.68048641      -0.12951300      -0.45727300       0.13389400
H        2.72577687      -0.41842012      -0.94109162       0.47052100      -0.32138900       1.25176000
H        2.96482288       0.45676690       0.57797540       0.41996600       0.73600200       0.52310500
H        0.77333084      -0.86358312      -1.89413964       1.34636500      -1.07104500      -2.77743000
H       -1.64251621      -0.32180511      -2.12143764      -0.13629900      -0.58135700       0.34612500
H       -2.91731323       0.35587390      -0.24575161       0.84305000      -0.27424300       0.49291000
H       -1.93750221       1.14861291       1.81041143       2.27982600      -1.16409200      -0.99304500
H        0.76304084       0.59104890       2.01542243       1.23544000       0.81699700       2.31099800
15
Lattice="10.0 0.0 0.0 0.0 10.0 0.0 0.0 0.0 10.0" Properties=species:S:1:pos:R:3:forces:R:3 id=SCAN_14 energy=-91.34984476 stress="0.002805196344555223 -0.0002819040011796433 -0.0009406391158344882 -0.0002819040011796433 -0.0012758580879674263 0.0005373252791381638 -0.0009406391158344882 0.0005373252791381638 0.001361148310172621" pbc="T T T"
C        2.49274768      -0.13086885       0.08551223       0.00812900      -3.09570000      -0.15000500
C        0.95411365      -0.13542285       0.00203023       2.03383100       3.23363600      -0.74645200
C        0.09223164      -1.09842886       0.36576823      -2.42865900      -3.27773600       1.84998900
C       -1.35346639      -1.06572186       0.47573224       2.72041000       3.05546000      -2.71061500
C       -1.85306240       0.13701316      -0.11612077       0.10213300      -1.31720400       0.85443300
C       -1.06109438       1.19202118      -0.46985878       4.49069500      -1.07788000       0.91779000
C        0.39631964       1.09312517      -0.35222978      -1.85051000       2.99916800      -0.97935600
H        3.01274669      -0.42770185      -0.88969479      -0.72769500       0.78253600       0.76627400
H        2.80872768       0.83681817       0.45259924       0.42368000       0.22442800       0.06032600
H        2.85746769      -0.99433986       0.76359324      -0.47016200       1.34853400      -0.46621100
H        0.54718465      -2.01522888       0.71288024       0.21309000      -0.58006600       0.16971100
H       -1.91890240      -1.92962788       0.68766324      -0.68348400      -0.88484900       0.48255200
H       -2.83752941       0.40601016      -0.36070478      -2.06378900      -0.56022900       0.28451200
H       -1.51069239       2.10028019      -0.69311578      -0.73635700       1.75543900      -0.78176100
H        0.99657165       2.12241319      -0.56407778      -1.03131100      -2.60553700       0.44881500
15
Lattice="10.0 0.0 0.0 0.0 10.0 0.0 0.0 0.0 10.0" Properties=species:S:1:pos:R:3:forces:R:3 id=SCAN_15 energy=-91.89684735 stress="0.006713055140343738 0.0033829603613199847 -0.0015653455227350177 0.0033829603613199847 0.008071631948756496 -0.0006316469650485116 -0.0015653455227350177 -0.0006316469650485116 0.0020763753239258355" pbc="T T T"
C        2.51259565      -0.14137007       0.20572928      -1.22930700      -1.41530500      -0.26911400
C        0.89964062      -0.09005307       0.07066028       1.82472100      -0.11342200      -0.33571500
C        0.38787661       1.15977095      -0.35843173      -0.24701700      -0.70104000       0.37232400
C       -1.01573541       1.25163896      -0.46417373       0.35184500       0.27720700       0.44592500
C       -1.80653142       0.16440994      -0.06282572      -2.50728700       0.80695600      -1.33773600
C       -1.33885542      -1.10670908       0.22382728       1.14730000       1.03985400       0.64243400
C        0.04778961      -1.22023609       0.34638828       1.47489300      -0.68969400      -0.07120400